BEGIN_CFG
 Size
    24
 Supercell
         8.006612      0.000000      0.000000
         0.000000      8.006612      0.000000
         0.000000      0.000000      8.006612
 AtomData:  id type       cartes_x      cartes_y      cartes_z           fx          fy          fz
             1    0       6.806750      3.591040      4.007980     0.210942    0.016349    0.383391
             2    0       3.184310      0.603630      7.368480    -0.322886   -0.372950    0.632407
             3    0       5.208500      6.061030      6.640310    -0.611289    0.232366   -0.086612
             4    0       0.131810      7.711450      7.808290    -0.061133   -0.194554    0.066792
             5    0       6.922540      0.355900      5.036060    -0.215829   -0.941183    0.254748
             6    0       6.018590      0.617990      2.382950     0.229783   -0.185806   -0.089263
             7    0       2.432670      0.106880      3.897790    -0.256177   -0.074006   -0.335729
             8    0       3.326810      2.785110      2.328160    -0.039710    0.253736    0.032105
             9    1       3.160820      6.447860      1.577030    -0.236177    0.212917    0.352449
            10    1       4.703340      2.364560      6.195790     0.323718   -0.298965   -0.701232
            11    2       2.009900      4.327250      5.846660    -1.076140    0.536872   -0.447674
            12    2       7.747040      3.944550      0.173210     2.091882    0.784266   -1.376432
            13    3       5.263510      5.995240      1.981190     0.178429    1.880671    0.343262
            14    3       6.014270      4.174180      1.797370    -1.174224   -1.846182    0.925008
            15    3       3.845350      0.548270      1.718200    -0.771878   -0.654469    0.219349
            16    3       7.929970      1.548860      1.427190    -0.007454   -0.672611    0.094023
            17    3       0.314350      1.528770      3.514600    -0.067663    0.289993   -0.269984
            18    3       4.298250      3.784970      4.659780     0.638542    0.284690   -0.280033
            19    3       6.933870      2.160610      6.420840    -1.289892    0.640952    0.560029
            20    3       3.134300      2.908040      7.602060     1.017487   -0.533839    0.813879
            21    3       4.220760      0.444660      5.422080     0.878140   -0.114090   -0.488058
            22    3       7.367440      6.118580      6.304690     0.105584    0.141880   -0.066988
            23    3       1.674300      5.822960      2.936950     0.736967    0.302563   -0.626440
            24    3       2.839470      6.262810      7.479990    -0.263744    0.322851    0.132096
 Energy
       -100.835891590000
 PlusStress:  xx          yy          zz          yz          xz          xy
         3.84458     8.99827     7.01814    -3.05101    -1.01643    -1.59025
 Feature   EFS_by	VASP
 Feature   mindist	1.978305
END_CFG

BEGIN_CFG
 Size
    24
 Supercell
         8.006612      0.000000      0.000000
         0.000000      8.006612      0.000000
         0.000000      0.000000      8.006612
 AtomData:  id type       cartes_x      cartes_y      cartes_z           fx          fy          fz
             1    0       7.011370      3.780770      4.205220    -0.193943    0.022754   -0.046764
             2    0       3.072890      0.602000      7.373570     0.123929    0.127102    0.307715
             3    0       5.026300      6.081040      6.445310     0.071878    0.100114   -0.102169
             4    0       0.310310      7.520460      7.503690    -0.029832   -0.134404    0.549451
             5    0       7.084710      7.722610      4.904490    -0.283517    0.775394   -0.483025
             6    0       5.863630      0.814750      2.480880    -0.096649    0.068350   -0.031573
             7    0       2.348690      0.294670      3.706020    -0.071528   -0.091845    0.178606
             8    0       3.481990      3.277140      2.174820    -0.349237   -0.244921    0.125792
             9    1       3.179380      6.570060      1.507540     0.099779    0.420183    1.522784
            10    1       4.759740      2.411370      6.150880    -1.064939   -0.641026    0.068420
            11    2       1.895360      4.356810      5.804710     0.380598   -0.089631    0.071443
            12    2       7.754410      3.853430      0.139010    -0.141038    0.212811    0.834296
            13    3       5.334310      6.266050      1.984420    -0.868028   -0.915872   -0.164292
            14    3       5.591140      4.158310      1.823000     1.741597    0.575183   -0.488688
            15    3       3.540020      0.630890      1.765250     0.532524    0.527609   -0.006913
            16    3       7.786380      1.328010      1.263300     0.051603    0.100932   -0.203685
            17    3       0.220630      1.573100      3.310360    -0.325775   -0.046711    0.361063
            18    3       4.390530      3.747890      4.582740    -0.560976    0.712109    0.102352
            19    3       6.840120      2.297900      6.352250     0.856721   -0.196279    0.156982
            20    3       3.304270      2.942650      7.724680     0.259428   -0.129339   -1.300648
            21    3       4.422010      0.392310      5.512250    -0.131825    0.175344   -0.682030
            22    3       7.347360      5.958640      6.124370    -0.003449   -0.513057    0.145508
            23    3       1.545120      6.142400      2.764450     0.608770   -0.788950   -0.055458
            24    3       2.839470      6.262810      7.479990    -0.585641    0.029632   -0.859609
 Energy
       -101.003115660000
 PlusStress:  xx          yy          zz          yz          xz          xy
         0.00752     6.27876     4.25904    -6.18931     2.18098     2.93530
 Feature   EFS_by	VASP
 Feature   mindist	2.085127
END_CFG

BEGIN_CFG
 Size
    24
 Supercell
         8.006612      0.000000      0.000000
         0.000000      8.006612      0.000000
         0.000000      0.000000      8.006612
 AtomData:  id type       cartes_x      cartes_y      cartes_z           fx          fy          fz
             1    0       6.819660      4.000560      4.612800    -0.105836   -0.069889   -0.337579
             2    0       3.088210      0.525850      7.535340     0.114833    0.562280   -0.174782
             3    0       4.964520      6.126950      6.138320     0.000017   -0.127610    0.142541
             4    0       0.282750      6.758180      0.249690     0.089981    0.229304   -0.205459
             5    0       6.775990      0.140080      4.727910     0.281398   -0.346120    0.372365
             6    0       5.766550      1.231360      2.272680    -0.146827    0.021434    0.162483
             7    0       2.064870      0.308810      3.902010    -0.043870   -0.030985   -0.125670
             8    0       3.196420      3.398630      2.404710     0.060163    0.179710   -0.166386
             9    1       3.162580      6.824570      1.737240     0.709555   -0.514836   -1.474500
            10    1       4.757750      2.309380      5.794020    -0.354572    0.653592    1.316155
            11    2       1.832460      4.393670      5.777530     0.308731   -0.118212    0.437291
            12    2       7.800610      3.835580      0.184520     0.293999   -0.368292   -0.385277
            13    3       5.259260      6.259680      2.026350     0.599966   -0.536018   -0.004787
            14    3       5.799720      4.183840      1.638960    -0.914737    0.826955    0.732993
            15    3       3.510870      0.907750      1.978690    -0.556537   -0.954345   -0.331988
            16    3       7.689800      1.148620      1.151920     0.437009    0.401793    0.027176
            17    3       7.948530      1.599800      3.220820     0.273252   -0.173009    0.263296
            18    3       4.245690      4.023250      4.556850     0.498225   -0.485573   -0.510626
            19    3       6.873500      2.250110      6.357730    -0.454633   -0.294115   -0.660212
            20    3       3.464210      2.904870      7.467060    -0.001329   -0.615081   -0.761295
            21    3       4.441150      0.335870      5.114010    -0.447936    0.420667   -0.010979
            22    3       7.309330      5.767650      6.037080    -0.090312    0.891261    0.446762
            23    3       1.637120      5.946270      2.765000    -0.327634   -0.122733    0.359257
            24    3       2.839470      6.262810      7.479990    -0.238938    0.574003    0.913786
 Energy
       -101.185732370000
 PlusStress:  xx          yy          zz          yz          xz          xy
         2.59231    -3.67913     2.15227    -6.48373    -2.86378     4.37398
 Feature   EFS_by	VASP
 Feature   mindist	2.038315
END_CFG

BEGIN_CFG
 Size
    24
 Supercell
         8.006612      0.000000      0.000000
         0.000000      8.006612      0.000000
         0.000000      0.000000      8.006612
 AtomData:  id type       cartes_x      cartes_y      cartes_z           fx          fy          fz
             1    0       6.691350      4.308420      4.152610     0.121262   -0.083466    0.277861
             2    0       3.107940      0.566320      7.485890    -0.048389    0.178198   -0.207447
             3    0       4.931460      5.767200      6.173330    -0.057470   -0.003845   -0.080255
             4    0       0.474840      6.757970      0.667810    -0.182589    0.231106   -0.266119
             5    0       6.806790      7.967570      5.398830    -0.293664    0.348180   -0.457931
             6    0       5.475750      1.603480      2.466680     0.090922   -0.283290    0.150892
             7    0       1.764460      0.103230      3.674890     0.120264    0.071007    0.010627
             8    0       2.908180      3.785740      2.223870     0.323144   -0.593088    0.031535
             9    1       3.335520      6.628280      1.465580     0.069278    0.393704    1.185124
            10    1       4.699620      2.326140      5.644380     0.531259    1.951761    0.325980
            11    2       1.829000      4.412930      5.795210    -0.006005   -0.164092   -0.412257
            12    2       7.863590      3.731280      0.175870    -0.598230   -0.269896   -0.496807
            13    3       5.384080      6.262260      2.081840    -0.085094    1.175285   -0.100095
            14    3       5.744580      4.330630      1.720420     0.793283   -1.650351   -0.661461
            15    3       3.189950      0.653080      1.858280     0.367950    0.544165   -0.668294
            16    3       7.786080      1.288310      1.138510    -0.514711   -0.214017    0.503206
            17    3       7.808990      1.512180      3.290150     0.128948    0.259879   -0.305417
            18    3       4.261690      4.047490      4.348890    -0.100277   -0.116891    0.555694
            19    3       6.797970      2.160440      6.111600     0.236145    1.028822    0.634778
            20    3       3.374860      2.815300      7.188830    -0.208198    0.090889    1.253780
            21    3       4.251510      0.629360      4.748980    -0.345005   -2.397503   -0.423999
            22    3       7.226550      5.969450      6.175130     0.265569   -0.560379    0.275405
            23    3       1.864610      5.748320      2.717670    -0.605053    0.043125   -0.237120
            24    3       2.839470      6.262810      7.479990    -0.014560    0.058345   -0.897743
 Energy
       -100.970484490000
 PlusStress:  xx          yy          zz          yz          xz          xy
         0.05347    12.68471     7.30019    -1.76192    -1.54815     1.98708
 Feature   EFS_by	VASP
 Feature   mindist	1.970179
END_CFG

BEGIN_CFG
 Size
    24
 Supercell
         8.006612      0.000000      0.000000
         0.000000      8.006612      0.000000
         0.000000      0.000000      8.006612
 AtomData:  id type       cartes_x      cartes_y      cartes_z           fx          fy          fz
             1    0       7.078770      4.420000      4.260600    -0.325152   -0.139776    0.090067
             2    0       3.052770      0.586730      6.803810    -0.194318   -0.576256    0.510904
             3    0       4.887760      5.661750      6.154180     0.145555    0.028460    0.167875
             4    0       0.352940      7.253750      0.198040     0.036451   -0.242803    0.019741
             5    0       6.377830      7.996350      5.199730     0.583809    0.011106    0.147851
             6    0       5.319710      1.306770      2.846340     0.307464    0.054457   -0.446406
             7    0       1.809420      0.041710      3.422910    -0.142110    0.051360   -0.108058
             8    0       3.196620      3.170450      1.880490     0.003185    0.318210    0.178988
             9    1       3.420060      6.553920      1.527670    -0.398994    0.057144    0.255960
            10    1       4.587650      2.457240      5.705040     0.489472    0.658292   -1.032817
            11    2       1.818440      4.423560      5.775280     0.128524    0.205410    0.038377
            12    2       7.862780      3.596610      0.071800     0.072409    0.727359    0.475694
            13    3       5.649940      6.298710      1.999510    -1.162767   -0.679178   -0.506563
            14    3       5.901410      4.197120      1.652690     0.111095    0.382435    0.228974
            15    3       3.035110      0.642970      1.372770     0.639624   -0.251803    0.939939
            16    3       7.572450      1.288380      1.323600    -0.709275   -0.172548   -0.357399
            17    3       7.803910      1.553340      3.372090     0.108339   -0.104768    0.398483
            18    3       4.234230      4.120970      4.285320    -0.049436   -1.014842    1.051540
            19    3       6.737570      2.566230      6.085180    -0.706363   -0.973932   -0.440605
            20    3       3.311760      2.805560      7.341690     0.065811    0.240242   -0.329680
            21    3       4.091800      0.515160      4.710990     0.327789    0.704015    0.733774
            22    3       7.245250      6.047950      6.452570    -0.204230    0.371634   -0.606865
            23    3       1.820350      5.494940      2.562130     0.750080    0.557036   -0.225659
            24    3       2.839470      6.262810      7.479990     0.132115   -0.193754   -1.197766
 Energy
       -100.997189630000
 PlusStress:  xx          yy          zz          yz          xz          xy
        -6.09977    -1.29192     4.96256    -3.41751    -2.12926    -0.50715
 Feature   EFS_by	VASP
 Feature   mindist	2.078482
END_CFG

BEGIN_CFG
 Size
    24
 Supercell
         8.006612      0.000000      0.000000
         0.000000      8.006612      0.000000
         0.000000      0.000000      8.006612
 AtomData:  id type       cartes_x      cartes_y      cartes_z           fx          fy          fz
             1    0       6.588300      4.356160      4.554300     0.207859    0.243733   -0.079123
             2    0       2.977810      0.592570      7.139230     0.303609   -0.168036   -0.219908
             3    0       4.999910      5.736890      6.629050    -0.172793    0.111314    0.021008
             4    0       0.496570      7.313040      0.103250    -0.366716   -0.366401   -0.089123
             5    0       6.910190      0.217610      4.982720    -0.485589   -0.517635    0.746946
             6    0       5.232800      0.788300      2.736660     0.290525   -0.059817    0.267750
             7    0       1.623740      0.205410      3.171020     0.422514   -0.298302    0.058184
             8    0       3.724690      3.351330      1.964600    -0.168041    0.148027   -0.038899
             9    1       3.326580      6.518670      1.536830    -0.839879   -0.071207   -0.682424
            10    1       4.514950      2.503140      5.687930     0.444664    0.509993    0.355850
            11    2       1.834480      4.467490      5.768620    -0.335789    0.336730   -0.071213
            12    2       7.854720      3.578030      0.003740    -0.096174    0.117345    0.081606
            13    3       5.351470      6.167100      1.686830     2.293099   -0.614117    0.422042
            14    3       6.100570      4.055590      1.752670    -1.162507    0.902788    0.337521
            15    3       3.320830      0.627610      1.475130    -0.330894    0.061459    0.535125
            16    3       7.143360      1.147290      1.391530     0.860187    0.387666    0.096401
            17    3       7.818720      1.530540      3.421620    -0.171371    0.236146   -1.116097
            18    3       4.110940      4.129890      4.426690     0.304322    0.358707   -0.421896
            19    3       6.597940      2.468200      6.062730     0.760022    0.013432    0.594171
            20    3       3.281170      2.893850      7.326700    -0.303447    0.178255    0.823840
            21    3       4.197920      0.633490      4.998730    -0.462863   -1.536696   -0.878993
            22    3       7.167460      6.194710      6.317620     0.586018   -0.167530   -0.044816
            23    3       1.916780      5.441930      2.491020    -0.971206   -0.070621    0.811797
            24    3       2.839470      6.262810      7.479990    -0.663090    0.285627   -1.547368
 Energy
       -101.071083000000
 PlusStress:  xx          yy          zz          yz          xz          xy
        12.55729     5.81149    10.73932    -3.11794    -2.89330     1.98555
 Feature   EFS_by	VASP
 Feature   mindist	2.014295
END_CFG

BEGIN_CFG
 Size
    24
 Supercell
         8.006612      0.000000      0.000000
         0.000000      8.006612      0.000000
         0.000000      0.000000      8.006612
 AtomData:  id type       cartes_x      cartes_y      cartes_z           fx          fy          fz
             1    0       6.561140      4.731870      4.450270    -0.068324   -0.365030   -0.205943
             2    0       3.383710      0.467290      7.412570    -0.152724    0.640446   -0.038687
             3    0       5.216510      6.047690      7.089620    -0.227222   -0.117036   -0.004485
             4    0       0.044710      6.945100      0.229140     0.094673    0.204669    0.000261
             5    0       6.674780      0.099720      5.439020    -0.127579    0.584970   -0.202322
             6    0       5.752260      0.198260      2.967130    -0.361422    0.270030   -0.204905
             7    0       1.833530      0.001850      3.408830    -0.290380    0.230720    0.293773
             8    0       3.412960      3.768510      2.104430     0.158079   -0.437354   -0.012763
             9    1       3.172580      6.501060      1.535280     0.561365   -0.281926    0.092076
            10    1       4.587040      2.522500      5.765460    -0.803571   -0.630021    0.869165
            11    2       1.805220      4.542310      5.748080     0.098159   -0.340825    0.154768
            12    2       7.834100      3.571910      0.018300    -0.130949   -0.227041    1.151938
            13    3       5.570470      6.038740      1.621790    -1.462655    1.692904    0.095078
            14    3       5.982850      4.119180      1.923890     0.765356   -1.565300   -0.174276
            15    3       3.431310      0.501600      1.790030     0.262973    0.648491    0.184579
            16    3       7.242600      1.175850      1.162420     0.694181    0.071195    0.514187
            17    3       7.800810      1.465690      3.252330    -0.099126   -0.563651   -0.393471
            18    3       4.153700      4.174760      4.520570     0.245237   -0.010167   -0.340324
            19    3       6.654000      2.320700      6.230730     0.010388    0.176210   -0.548754
            20    3       3.256770      3.000610      7.467320     0.484362   -0.679994   -0.418433
            21    3       4.154080      0.486330      5.163620     0.331645    0.599029   -0.200576
            22    3       7.274830      6.129600      6.128460     0.217917   -0.288382    0.386034
            23    3       1.708830      5.520640      2.685490     0.326594    0.289172   -0.331896
            24    3       2.839470      6.262810      7.479990    -0.499126    0.128388   -0.720732
 Energy
       -101.339352870000
 PlusStress:  xx          yy          zz          yz          xz          xy
         0.46475    10.96737     5.30886    -2.21641     1.35383    -1.12807
 Feature   EFS_by	VASP
 Feature   mindist	1.986462
END_CFG

BEGIN_CFG
 Size
    24
 Supercell
         8.006612      0.000000      0.000000
         0.000000      8.006612      0.000000
         0.000000      0.000000      8.006612
 AtomData:  id type       cartes_x      cartes_y      cartes_z           fx          fy          fz
             1    0       6.673680      4.273540      4.285540     0.068146    0.036527    0.327730
             2    0       3.158660      0.614600      7.706070    -0.034934   -0.030115   -0.282492
             3    0       5.128030      5.951110      7.083590     0.237218   -0.158062   -0.217295
             4    0       7.987580      6.992080      0.231090     0.273337   -0.380582   -0.222487
             5    0       6.401140      0.091460      5.450070     0.222087    0.024661   -0.128798
             6    0       5.716380      0.384330      2.374750     0.900181    0.294203    0.253305
             7    0       1.843630      0.109380      4.097450     0.169337   -0.147340   -0.365484
             8    0       2.992640      3.017150      2.314070     0.180362    0.242551    0.034442
             9    1       3.176660      6.524420      1.584410    -0.039925    0.313829   -0.073583
            10    1       4.554980      2.482610      5.955540    -0.366174   -0.597226    0.432107
            11    2       1.774380      4.568810      5.738350     0.049644   -0.345931    0.381908
            12    2       7.818550      3.551630      0.196750     0.972068    0.292327   -0.786564
            13    3       5.330930      6.065760      1.789810     0.687447   -0.460335    0.029136
            14    3       6.075580      4.061640      1.889540    -1.107351    0.522063    0.507382
            15    3       3.545860      0.581770      2.113070    -0.693571   -0.906513   -0.662983
            16    3       7.735100      1.127060      1.060330    -0.183969   -0.393565   -0.454073
            17    3       7.886870      1.238980      3.099650     0.047539    0.255066    1.186969
            18    3       4.293870      4.040140      4.551130    -0.765859    0.059999   -0.070133
            19    3       6.707790      2.445330      6.141480     0.129726   -0.286579   -0.019257
            20    3       3.357470      2.874260      7.731200     0.219234    0.517004   -1.031292
            21    3       4.064130      0.473060      5.305340     0.178638    0.685191    0.447637
            22    3       7.393520      6.030190      6.114690    -0.426109    0.362691    0.094101
            23    3       1.684140      5.733960      2.731430    -0.402202   -0.489180    0.348988
            24    3       2.839470      6.262810      7.479990    -0.329890    0.582011    0.283423
 Energy
       -101.326345360000
 PlusStress:  xx          yy          zz          yz          xz          xy
         4.69719     2.95161     3.12225    -5.05289     0.37249     0.80746
 Feature   EFS_by	VASP
 Feature   mindist	2.041592
END_CFG

BEGIN_CFG
 Size
    24
 Supercell
         8.006612      0.000000      0.000000
         0.000000      8.006612      0.000000
         0.000000      0.000000      8.006612
 AtomData:  id type       cartes_x      cartes_y      cartes_z           fx          fy          fz
             1    0       6.698010      4.238290      4.387360    -0.036874    0.038663    0.056584
             2    0       2.727970      0.853730      7.615940     0.043753   -0.511062    0.222298
             3    0       5.076930      5.409400      6.453650    -0.144746    0.235882    0.161352
             4    0       0.609380      6.521080      0.002620    -0.525460    0.358385    0.210666
             5    0       6.531750      0.079920      5.031510    -0.015387   -0.068550    0.225454
             6    0       6.090470      1.119220      2.068310    -0.456499   -0.202398   -0.091297
             7    0       2.083290      7.904850      3.901730    -0.088698    0.066984    0.231209
             8    0       3.081150      2.845810      2.620110     0.065751    0.078074   -0.134002
             9    1       3.150140      6.407520      1.640060     0.018385    0.271684   -0.170335
            10    1       4.543220      2.415180      6.143830     1.234966    0.102817   -1.015966
            11    2       1.760620      4.528430      5.781640    -0.385491   -0.369511    0.157717
            12    2       7.914580      3.566790      0.301920    -0.492915   -0.366113   -0.077909
            13    3       5.234910      6.105200      2.034060     0.627572   -1.182219    0.182438
            14    3       5.828730      3.952800      2.002500     0.391852    0.681005   -0.227524
            15    3       3.536570      0.437840      2.166210     0.580861    0.081616   -0.714079
            16    3       0.215910      0.907540      1.045870    -0.378737    0.465011    0.905933
            17    3       0.110000      1.179270      3.261810     0.213634    0.249266   -0.910274
            18    3       4.086240      3.877320      4.620620     0.335061    0.436856    0.002288
            19    3       6.789360      2.408760      6.150250    -0.488409    0.164180    0.386844
            20    3       3.422240      3.033820      7.726730    -0.500731    0.596685    1.082490
            21    3       4.072370      0.539470      5.524140    -0.181631   -1.060389   -0.390991
            22    3       7.303770      6.075250      6.131740    -0.054258   -0.131968   -0.213740
            23    3       1.576900      5.727890      2.836470     0.100629   -0.511379   -0.282498
            24    3       2.839470      6.262810      7.479990     0.132179    0.571248    0.428627
 Energy
       -101.273547710000
 PlusStress:  xx          yy          zz          yz          xz          xy
         0.37860     4.32470    -1.16765    -2.65969    -1.11472     1.00622
 Feature   EFS_by	VASP
 Feature   mindist	2.030764
END_CFG

BEGIN_CFG
 Size
    24
 Supercell
         8.006612      0.000000      0.000000
         0.000000      8.006612      0.000000
         0.000000      0.000000      8.006612
 AtomData:  id type       cartes_x      cartes_y      cartes_z           fx          fy          fz
             1    0       6.325780      4.631620      4.419750     0.401346    0.189447   -0.040801
             2    0       2.784290      0.732960      7.629880     0.014922   -0.234508    0.219746
             3    0       4.926990      6.073990      6.466120     0.031017    0.003700   -0.173097
             4    0       7.897080      6.859960      0.103920     0.399284    0.065084    0.514463
             5    0       6.851350      0.284150      5.107600     0.105326   -0.250639   -0.264756
             6    0       5.790320      1.084190      0.528090    -0.230428   -0.031215    0.792985
             7    0       2.662900      0.127540      3.708900    -0.367232   -0.026824    0.249504
             8    0       3.337600      3.151000      2.436500    -0.078611   -0.018965    0.073474
             9    1       3.405960      6.198800      1.469660    -0.602923   -0.377021    0.820984
            10    1       4.638270      2.357130      6.128380    -1.353808    0.443947    0.787898
            11    2       1.596530      4.282960      6.013680     0.460808    0.333171    0.096983
            12    2       7.989250      3.518680      0.456210    -0.024120    0.289522    0.368703
            13    3       5.401680      5.635690      2.066700     1.269313   -0.656310    0.037166
            14    3       6.160150      3.497320      2.237450    -0.537656    1.050214   -0.453841
            15    3       3.989800      0.201570      1.870140     0.191056   -0.211287   -0.311375
            16    3       0.272660      1.174070      1.463600    -0.173681   -0.657650   -0.870517
            17    3       0.720620      1.506840      3.433550     0.165834   -0.117962    0.780361
            18    3       4.200080      3.807040      4.731700    -0.487178    0.780385   -0.323115
            19    3       6.593820      2.049370      6.677700     2.011916    0.302579    0.044618
            20    3       3.479460      2.958240      7.867460    -0.110404   -0.048129   -0.376059
            21    3       4.149290      0.451850      5.545920    -0.198347   -0.890924   -0.499938
            22    3       7.224710      6.071810      6.155440     0.031272   -0.052769   -0.479085
            23    3       1.889490      5.252690      2.572310     0.018193    0.208007    0.086894
            24    3       2.839470      6.262810      7.479990    -0.914603   -0.095295   -1.095476
 Energy
       -101.589382950000
 PlusStress:  xx          yy          zz          yz          xz          xy
         5.09574     4.62162     7.94483    -3.67679    -0.48031     0.81627
 Feature   EFS_by	VASP
 Feature   mindist	2.047464
END_CFG

BEGIN_CFG
 Size
    24
 Supercell
         8.006612      0.000000      0.000000
         0.000000      8.006612      0.000000
         0.000000      0.000000      8.006612
 AtomData:  id type       cartes_x      cartes_y      cartes_z           fx          fy          fz
             1    0       6.812630      4.503260      4.522740    -0.216393   -0.172289    0.006716
             2    0       2.794030      0.468230      7.833370     0.064092    0.153008    0.145624
             3    0       5.018050      6.362940      6.012270     0.052071   -0.195166    0.277498
             4    0       0.644560      6.664970      0.594180    -0.149371   -0.021885   -0.151030
             5    0       7.275950      0.120880      4.677630    -0.099095    0.002911    0.387526