BEGIN_CFG
 Size
    24
 Supercell
         9.446038     -0.000000     -0.000000
        -4.723019      8.180508      0.000000
        -0.000000      0.000000      7.654615
 AtomData:  id type       cartes_x      cartes_y      cartes_z           fx          fy          fz
             1    0       3.793930      0.000000      4.473850     0.000746    0.000000   -0.021462
             2    0       1.896970      3.285640      0.646540     0.000373    0.000646   -0.021462
             3    0      -1.896960      3.285640      4.473850    -0.000373    0.000646   -0.021462
             4    0       5.652110     -0.000000      0.646540    -0.000746    0.000000   -0.021462
             5    0       2.826050      4.894870      4.473850    -0.000373   -0.000646   -0.021462
             6    0       6.619980      4.894870      0.646540     0.000373   -0.000646   -0.021462
             7    0      -0.000000      0.000000      2.364280     0.000000    0.000000    0.020244
             8    0      -0.000000      0.000000      6.191590     0.000000    0.000000    0.020244
             9    1      -0.000000      5.453680      2.418680     0.000000    0.000000    0.001351
            10    1       4.723020      2.726830      6.245990     0.000000    0.000000    0.001351
            11    1      -0.000000      5.453680      6.245990     0.000000    0.000000    0.001351
            12    1       4.723020      2.726830      2.418680     0.000000    0.000000    0.001351
            13    2      -1.765980      6.468370      6.245360     0.007108   -0.038655    0.006907
            14    2       2.961280      1.704800      2.418060     0.037030   -0.013171    0.006907
            15    2       0.004240      3.416940      6.245360     0.029922    0.025483    0.006907
            16    2       6.489000      1.712140      2.418060    -0.007108    0.038655    0.006907
            17    2       1.761740      6.475710      6.245360    -0.037030    0.013171    0.006907
            18    2       4.718780      4.763560      2.418060    -0.029922   -0.025483    0.006907
            19    2       1.765980      6.468370      2.418060    -0.007108   -0.038655    0.006907
            20    2       4.727260      4.763560      6.245360     0.029922   -0.025483    0.006907
            21    2      -1.761740      6.475710      2.418060     0.037030    0.013171    0.006907
            22    2       2.957040      1.712140      6.245360     0.007108    0.038655    0.006907
            23    2      -0.004240      3.416940      2.418060    -0.029922    0.025483    0.006907
            24    2       6.484760      1.704800      6.245360    -0.037030   -0.013171    0.006907
 Energy
       -101.111839740000
 PlusStress:  xx          yy          zz          yz          xz          xy
         0.07919     0.07919    -0.04137     0.00000     0.00000     0.00000
 Feature   EFS_by	VASP
 Feature   mindist	2.036731
END_CFG

BEGIN_CFG
 Size
    24
 Supercell
        10.769353     -0.000003      0.000000
        -5.384678      7.615085     -5.384679
        -0.000000      0.000000     10.769359
 AtomData:  id type       cartes_x      cartes_y      cartes_z           fx          fy          fz
             1    0      -3.132950      3.807540     -2.251720    -0.016946    0.000000    0.016946
             2    0       3.132950      3.807540      2.251720     0.016946   -0.000000   -0.016946
             3    0       5.384670      0.623130     -0.000010    -0.000000    0.023965    0.000000
             4    0       0.000010     -0.623130      5.384680     0.000000   -0.023965   -0.000000
             5    0       3.132950      3.807540     -2.251720     0.016946   -0.000000    0.016946
             6    0      -3.132950      3.807540      2.251720    -0.016946    0.000000   -0.016946
             7    0      -0.000000     -0.000000      0.000000    -0.000000    0.000000   -0.000000
             8    0       5.384680      3.807540      0.000000    -0.000000    0.000000   -0.000000
             9    1       0.000000     -5.626810      2.811840    -0.000000    0.006463    0.009140
            10    1      -2.811840      5.626810      0.000000    -0.009140   -0.006463   -0.000000
            11    1      -7.957520      5.626820      0.000000     0.009140   -0.006463   -0.000000
            12    1       0.000000     -5.626810      7.957520    -0.000000    0.006463   -0.009140
            13    2       3.724730      1.154060      1.740790    -0.011078    0.023219   -0.012172
            14    2      -1.740790     -1.154060     -3.724730     0.012172   -0.023219    0.011078
            15    2       1.740790     -1.154060      3.724740    -0.012172   -0.023219   -0.011078
            16    2       7.044610      1.154060      9.028570     0.011078    0.023219    0.012172
            17    2       3.467950      6.212220     -1.835880     0.028044   -0.000773    0.004794
            18    2      -3.548800      1.402860      1.916730    -0.004794    0.000773   -0.028044
            19    2       3.548800      1.402860      8.852640     0.004794    0.000773    0.028044
            20    2      -3.467960      6.212230     -8.933480    -0.028044   -0.000773   -0.004794
            21    2      -1.808020      3.864710     -0.175930    -0.016965   -0.016440    0.015872
            22    2       0.175930     -3.864710     12.577380    -0.015872    0.016440    0.016965
            23    2      10.593420     -3.864710     -1.808010     0.015872    0.016440   -0.016965
            24    2       1.808010      3.864710      0.175930     0.016965   -0.016440   -0.015872
 Energy
       -102.314323230000
 PlusStress:  xx          yy          zz          yz          xz          xy
         0.03895     0.03895     0.03895     0.00000    -0.00000    -0.00000
 Feature   EFS_by	VASP
 Feature   mindist	2.035584
END_CFG

BEGIN_CFG
 Size
    24
 Supercell
         5.890853      1.470990     -3.160939
         1.734709      6.597204     -0.491881
        -1.694088     -0.764121     13.465795
 AtomData:  id type       cartes_x      cartes_y      cartes_z           fx          fy          fz
             1    0       3.370920      1.568590      0.754380     0.011691   -0.004396   -0.003858
             2    0       1.292850      4.131690      2.088910     0.011691   -0.004396   -0.003858
             3    0       1.310990      0.828230      4.164160     0.002431   -0.020565   -0.008179
             4    0       5.123770      4.862330      2.337750     0.002431   -0.020565   -0.008179
             5    0       0.992200      2.947760      9.024170     0.011727    0.025593   -0.000194
             6    0       4.804980      6.981850      7.197760     0.011727    0.025593   -0.000194
             7    0      -0.404770      0.871830     10.842740    -0.001810    0.001947   -0.000670
             8    0       3.408010      4.905930      9.016330    -0.001810    0.001947   -0.000670
             9    1       5.262670      2.212230     -2.317280     0.009407    0.012022    0.030437
            10    1       3.184600      4.775330     -0.982750     0.009407    0.012022    0.030437
            11    1       4.944560      1.248770      4.244010     0.011094   -0.004688    0.006544
            12    1       2.866490      3.811880      5.578540     0.011094   -0.004688    0.006544
            13    2       1.291990      0.431120     -0.317650    -0.019655    0.007119   -0.001776
            14    2       5.104770      4.465220     -2.144060    -0.019655    0.007119   -0.001776
            15    2       5.124620      7.238480      2.513010     0.001907   -0.015802    0.004340
            16    2       1.311840      3.204380      4.339420     0.001907   -0.015802    0.004340
            17    2       4.852230      3.494070      4.536140    -0.016676   -0.008442   -0.009584
            18    2       2.774160      6.057170      5.870660    -0.016676   -0.008442   -0.009584
            19    2      -0.105910      3.326230     11.323110    -0.001694    0.011139   -0.006789
            20    2       1.972160      0.763120      9.988580    -0.001694    0.011139   -0.006789
            21    2       5.448430      1.383040     -0.419670    -0.020112   -0.005153   -0.006150
            22    2       3.370360      3.946150      0.914860    -0.020112   -0.005153   -0.006150
            23    2       2.964480      2.908410      7.460000     0.011691    0.001225   -0.004122
            24    2       0.886410      5.471520      8.794530     0.011691    0.001225   -0.004122
 Energy
       -111.329206560000
 PlusStress:  xx          yy          zz          yz          xz          xy
        -0.63828    -0.28322    -0.44601    -0.11222     0.13831     0.08076
 Feature   EFS_by	VASP
 Feature   mindist	2.078797
END_CFG

BEGIN_CFG
 Size
    24
 Supercell
         8.481177      0.627302     -1.076513
         0.711137     10.198057     -0.711508
        -0.938771     -0.662706      6.133494
 AtomData:  id type       cartes_x      cartes_y      cartes_z           fx          fy          fz
             1    0       3.581820      4.861690      0.731590    -0.012085    0.009653    0.013070
             2    0       4.673540      5.303190      3.614840     0.012085   -0.009653   -0.013070
             3    0       5.974690      8.765930     -0.707360    -0.014955   -0.009559   -0.008745
             4    0       2.280670      1.398950      5.053790     0.014955    0.009559    0.008745
             5    0       6.729550      2.945190     -0.403910     0.008681    0.011222   -0.014808
             6    0       1.525810      7.219700      4.750340    -0.008681   -0.011222    0.014808
             7    0       0.322000      6.668190      1.523670    -0.010146   -0.018520    0.018573
             8    0      -0.547820      2.869400      3.899280     0.010146    0.018520   -0.018573
             9    1       3.303440      7.885120      1.630080    -0.019470   -0.016522   -0.008240
            10    1       4.951920      2.279770      2.716350     0.019470    0.016522    0.008240
            11    1       1.838520      0.988350      2.444360    -0.009308   -0.000812   -0.022830
            12    1       6.416840      9.176540      1.902070     0.009308    0.000812    0.022830
            13    2       7.569960      7.214520     -1.593020    -0.003460   -0.006883   -0.020893
            14    2       1.624170      3.613070     -0.194050     0.003460    0.006883    0.020893
            15    2       0.674040      2.648640      1.414230    -0.001110   -0.002059   -0.009033
            16    2      -0.899850      6.888950      4.008710     0.001110    0.002059    0.009033
            17    2       1.789070      9.224480      0.819170     0.005062    0.023338    0.019537
            18    2       6.466290      0.940410      3.527260    -0.005062   -0.023338   -0.019537
            19    2       3.739720      1.185540      1.267110     0.010733   -0.002096    0.001366
            20    2       4.515640      8.979350      3.079320    -0.010733    0.002096   -0.001366
            21    2       5.826850      3.921670      1.715410    -0.007834   -0.024409    0.002347
            22    2       2.428510      6.243220      2.631020     0.007834    0.024409   -0.002347
            23    2       4.363630      7.113230     -0.013220    -0.007526   -0.000873    0.016986
            24    2       3.891730      3.051660      4.359650     0.007526    0.000873   -0.016986
 Energy
       -106.140973260000
 PlusStress:  xx          yy          zz          yz          xz          xy
         0.28115     0.21137     0.33695    -0.03601     0.10038    -0.18948
 Feature   EFS_by	VASP
 Feature   mindist	2.102246
END_CFG

BEGIN_CFG
 Size
    24
 Supercell
        10.332208      2.607156     -0.193631
         4.203742     12.898618     -0.172309
         0.028044     -0.037960      4.072739
 AtomData:  id type       cartes_x      cartes_y      cartes_z           fx          fy          fz
             1    0       2.294280      1.042490      0.611780     0.012937   -0.013767    0.001655
             2    0       8.511320      5.570730      0.471880     0.012937   -0.013767    0.001655
             3    0       8.456160     12.597530      2.427350    -0.008813    0.001613    0.005625
             4    0      10.469450      4.227150      2.459770    -0.008813    0.001613    0.005625
             5    0       4.396150      7.491800      0.525620     0.012937   -0.013767    0.001655
             6    0      10.613190     12.020040      0.385730     0.012937   -0.013767    0.001655
             7    0       6.354280      6.148220      2.513500    -0.008813    0.001613    0.005625
             8    0      12.571320     10.676450      2.373610    -0.008813    0.001613    0.005625
             9    1       7.129950      2.308980      2.576820     0.019765   -0.007736   -0.023900
            10    1       3.014790      4.230050      2.630560     0.019765   -0.007736   -0.023900
            11    1       9.231830      8.758290      2.490670     0.019765   -0.007736   -0.023900
            12    1       5.116660     10.679360      2.544410     0.019765   -0.007736   -0.023900
            13    2       7.999940      4.302690      2.511370    -0.004897   -0.012409   -0.011723
            14    2       3.884770      6.223770      2.565110    -0.004897   -0.012409   -0.011723
            15    2       8.932010     13.789910      0.405090     0.008784    0.015457    0.024438
            16    2      10.945310      5.419530      0.437510     0.008784    0.015457    0.024438
            17    2       5.723050      2.717220      0.683520    -0.027775    0.016842    0.003905
            18    2       1.607880      4.638290      0.737260    -0.027775    0.016842    0.003905
            19    2      10.101810     10.752000      2.425220    -0.004897   -0.012409   -0.011723
            20    2       5.986650     12.673080      2.478960    -0.004897   -0.012409   -0.011723
            21    2       6.830140      7.340600      0.491250     0.008784    0.015457    0.024438
            22    2      13.047180     11.868840      0.351360     0.008784    0.015457    0.024438
            23    2       7.824920      9.166520      0.597370    -0.027775    0.016842    0.003905
            24    2       3.709750     11.087600      0.651100    -0.027775    0.016842    0.003905
 Energy
       -101.603363070000
 PlusStress:  xx          yy          zz          yz          xz          xy
        -0.41742     0.12795    -0.40760    -0.08011    -0.00180     0.14947
 Feature   EFS_by	VASP
 Feature   mindist	2.082021
END_CFG

BEGIN_CFG
 Size
    24
 Supercell
         6.838400     -2.247610      1.698584
        -3.841440     16.075583     -1.867097
         1.037495     -1.064626      5.819957
 AtomData:  id type       cartes_x      cartes_y      cartes_z           fx          fy          fz
             1    0       0.305950     12.329800      0.263630     0.002513    0.003572   -0.008236
             2    0       5.831960      1.862410      2.827100     0.011418   -0.002978    0.001079
             3    0       3.729430      0.436190      5.389080    -0.002513   -0.003572    0.008236
             4    0       0.124140      2.865790      3.759160    -0.011418    0.002978   -0.001079
             5    0       2.226670      4.292010      1.197180     0.002513    0.003572   -0.008236
             6    0       3.911240      9.900200      1.893550     0.011418   -0.002978    0.001079
             7    0       1.808710      8.473980      4.455530    -0.002513   -0.003572    0.008236
             8    0      -1.796580     10.903580      2.825610    -0.011418    0.002978   -0.001079
             9    1      -0.229870      1.336490      0.505600    -0.004604   -0.017337    0.009346
            10    1      -0.652430      5.639320      4.382070     0.004604    0.017337   -0.009346
            11    1      -2.150590      9.374290     -0.427950    -0.004604   -0.017337    0.009346
            12    1      -2.573150     13.677110      3.448520     0.004604    0.017337   -0.009346
            13    2       5.456700     -0.362740      3.841720    -0.022030    0.018449   -0.023308
            14    2       0.499400      5.090940      2.744540     0.022030   -0.018449    0.023308
            15    2       6.546940     -3.179880      6.567740    -0.006267   -0.013677   -0.002733
            16    2       1.742950      1.938470      5.383640     0.006486    0.020590   -0.010306
            17    2       1.329880     -0.129710      0.952070     0.006267    0.013677    0.002733
            18    2       4.213150      2.789730      1.202620    -0.006486   -0.020590    0.010306
            19    2       3.535980      7.675050      2.908170    -0.022030    0.018449   -0.023308
            20    2      -1.421320     13.128730      1.810990     0.022030   -0.018449    0.023308
            21    2       4.626220      4.857910      5.634190    -0.006267   -0.013677   -0.002733
            22    2      -0.177770      9.976260      4.450090     0.006486    0.020590   -0.010306
            23    2      -0.590840      7.908080      0.018520     0.006267    0.013677    0.002733
            24    2       2.292430     10.827520      0.269070    -0.006486   -0.020590    0.010306
 Energy
       -111.109073470000
 PlusStress:  xx          yy          zz          yz          xz          xy
        -0.25763    -0.09429    -0.01942     0.03738    -0.11453     0.25890
 Feature   EFS_by	VASP
 Feature   mindist	2.075798
END_CFG

BEGIN_CFG
 Size
    24
 Supercell
         9.050359     -0.646011      0.000000
        -0.718458      9.710765      0.000000
         0.000000      0.000000      7.605718
 AtomData:  id type       cartes_x      cartes_y      cartes_z           fx          fy          fz
             1    0       6.600850      5.805010     -0.016780    -0.012003   -0.019600    0.015590
             2    0       6.600850      5.805010      3.821310    -0.012003   -0.019600   -0.015590
             3    0       1.732880      3.261730      3.786080     0.012003    0.019600    0.015590
             4    0       1.732880      3.261730      0.018450     0.012003    0.019600   -0.015590
             5    0       2.877420      7.788960     -0.078170    -0.012021   -0.005804   -0.006924
             6    0       2.877420      7.788960      3.882700    -0.012021   -0.005804    0.006924
             7    0       5.456320      1.277790      3.724690     0.012021    0.005804   -0.006924
             8    0       5.456320      1.277790      0.079840     0.012021    0.005804    0.006924
             9    1      -1.021210      4.241090      0.687790     0.032036   -0.002167    0.013254
            10    1      -1.021210      4.241090      3.116740     0.032036   -0.002167   -0.013254
            11    1       0.304590      5.471670      4.490650    -0.032036    0.002167    0.013254
            12    1       0.304590      5.471670      6.919600    -0.032036    0.002167   -0.013254
            13    2       2.299770      5.519800     -0.065250     0.018878   -0.000430   -0.005692
            14    2       2.299770      5.519800      3.869780     0.018878   -0.000430    0.005692
            15    2       6.033970      3.546950      3.737610    -0.018878    0.000430   -0.005692
            16    2       6.033970      3.546950      0.066920    -0.018878    0.000430    0.005692
            17    2       7.079300     -0.393760      0.732930    -0.011136    0.034926    0.009180
            18    2       7.079300     -0.393760      3.071610    -0.011136    0.034926   -0.009180
            19    2       1.254430      9.460510      4.535780     0.011136   -0.034926    0.009180
            20    2       1.254430      9.460510      6.874470     0.011136   -0.034926   -0.009180
            21    2       3.073500      1.339990     -0.151340    -0.007798    0.030105    0.006626
            22    2       3.073500      1.339990      3.955870    -0.007798    0.030105   -0.006626
            23    2       5.260240      7.726750      3.651520     0.007798   -0.030105    0.006626
            24    2       5.260240      7.726750      0.153010     0.007798   -0.030105   -0.006626
 Energy
        -96.962625390000
 PlusStress:  xx          yy          zz          yz          xz          xy
         0.59258     0.25601     0.17034     0.00000     0.00000     0.21934
 Feature   EFS_by	VASP
 Feature   mindist	2.019039
END_CFG

BEGIN_CFG
 Size
    24
 Supercell
        10.392177      0.000000      0.000000
         0.000000      9.813469     -0.203201
         0.000000     -0.049841      6.373586
 AtomData:  id type       cartes_x      cartes_y      cartes_z           fx          fy          fz
             1    0       3.239210      3.042090      1.502490    -0.010276    0.000436    0.000902
             2    0       7.079410      3.858740      2.022090    -0.003775    0.001815    0.003069
             3    0       1.874490      8.777240      1.911500     0.001480   -0.007339    0.006948
             4    0       8.415120      7.945710      1.412230    -0.002494    0.003446    0.011243
             5    0       1.874490      0.988540      4.260240     0.001480    0.007339   -0.006948
             6    0       8.415120      1.820060      4.759510    -0.002494   -0.003446   -0.011243
             7    0       3.239210      6.723690      4.669260    -0.010276   -0.000436   -0.000902
             8    0       7.079410      5.907040      4.149650    -0.003775   -0.001815   -0.003069
             9    1      -0.302110      2.041930      2.620760     0.000069   -0.011895    0.000869
            10    1       4.887320      6.925320      2.521720     0.019264    0.019239    0.017521
            11    1       4.887320      2.840450      3.650020     0.019264   -0.019239   -0.017521
            12    1      -0.302110      7.723850      3.550980     0.000069    0.011895   -0.000869
            13    2       3.511210      2.411400     -0.958630    -0.008562   -0.004708    0.003495
            14    2       8.712790      2.496800      0.848650    -0.002569    0.026094    0.003984
            15    2       3.511210      7.404210      0.756780    -0.008562    0.004708   -0.003495
            16    2       8.712790      7.318820     -1.050490    -0.002569   -0.026094   -0.003984
            17    2       1.549680      1.311630      1.823120     0.005898   -0.009426    0.012907
            18    2       8.337710      0.722030      1.938650    -0.004590   -0.025150    0.026563
            19    2       3.129930      5.621380      1.837150    -0.011969   -0.028401    0.011348
            20    2       6.736160      6.204440      1.709160     0.017524   -0.005994    0.006559
            21    2       3.129930      4.144390      4.334590    -0.011969    0.028401   -0.011348
            22    2       6.736160      3.561330      4.462580     0.017524    0.005994   -0.006559
            23    2       1.549680      8.454150      4.348620     0.005898    0.009426   -0.012907
            24    2       8.337710      9.043740      4.233090    -0.004590    0.025150   -0.026563
 Energy
        -99.973050450000
 PlusStress:  xx          yy          zz          yz          xz          xy
        -0.11648    -0.13080    -0.35947     0.05961     0.00000     0.00000
 Feature   EFS_by	VASP
 Feature   mindist	2.116264
END_CFG

BEGIN_CFG
 Size
    24
 Supercell
         6.559832      1.729789      0.000000
         0.847222      5.292956      0.000000
         0.000000      0.000000     15.125860
 AtomData:  id type       cartes_x      cartes_y      cartes_z           fx          fy          fz
             1    0       1.993230      4.923330      2.300170    -0.017055    0.004175   -0.007173
             2    0       5.298270      3.763190      1.286300    -0.005976   -0.003744    0.007355
             3    0       2.110410      3.261100      5.067770     0.005976    0.003744    0.007355
             4    0       5.415450      2.100960      6.081630     0.017055   -0.004175   -0.007173
             5    0       1.993230      4.923330      9.863100    -0.017055    0.004175   -0.007173
             6    0       5.298270      3.763190      8.849230    -0.005976   -0.003744    0.007355
             7    0       2.110410      3.261100     12.630700     0.005976    0.003744    0.007355
             8    0       5.415450      2.100960     13.644560     0.017055   -0.004175   -0.007173
             9    1       2.097820      1.751450     -0.351390    -0.005691    0.004196   -0.014061
            10    1       5.310860      5.272840      3.430080     0.005691   -0.004196   -0.014061
            11    1       2.097820      1.751450      7.211540    -0.005691    0.004196   -0.014061
            12    1       5.310860      5.272840     10.993010     0.005691   -0.004196   -0.014061
            13    2       3.011450      2.646700      1.523350     0.006286   -0.010799    0.003753
            14    2       0.404370      0.621850      0.309700     0.010218    0.003824   -0.000723
            15    2       0.444480      4.672650      4.091160    -0.010218   -0.003824   -0.000723
            16    2       4.397240      4.377590      5.304810    -0.006286    0.010799    0.003753
            17    2       4.693650      5.545960     14.620600     0.003595    0.011198    0.010848
            18    2       2.715030      1.478330      3.276200    -0.003595   -0.011198    0.010848
            19    2       3.011450      2.646700      9.086280     0.006286   -0.010799    0.003753
            20    2       0.404370      0.621850      7.872630     0.010218    0.003824   -0.000723
            21    2       0.444480      4.672650     11.654090    -0.010218   -0.003824   -0.000723
            22    2       4.397240      4.377590     12.867740    -0.006286    0.010799    0.003753
            23    2       4.693650      5.545960      7.057670     0.003595    0.011198    0.010848
            24    2       2.715030      1.478330     10.839130    -0.003595   -0.011198    0.010848
 Energy
       -103.504460680000
 PlusStress:  xx          yy          zz          yz          xz          xy
         0.41365     0.29798     0.05367     0.00000     0.00000    -0.00418
 Feature   EFS_by	VASP
 Feature   mindist	2.127307
END_CFG

BEGIN_CFG
 Size
    24
 Supercell
         7.919436     -0.000000     -0.000000
         0.000000      7.919436      0.000000
         0.000000      0.000000      7.919436
 AtomData:  id type       cartes_x      cartes_y      cartes_z           fx          fy          fz
             1    0       4.375600      4.375600      4.375600     0.013185    0.013185    0.013185
             2    0       0.415890     -0.415890      3.543830     0.013185   -0.013185   -0.013185
             3    0       3.543830      0.415890     -0.415890    -0.013185    0.013185   -0.013185
             4    0      -0.415890      3.543830      0.415890    -0.013185   -0.013185    0.013185
             5    0       1.563970      1.563970      1.563970    -0.013185   -0.013185   -0.013185
             6    0       5.523690      2.395750      6.355460    -0.013185    0.013185    0.013185
             7    0       6.355460      5.523690      2.395750     0.013185   -0.013185    0.013185
             8    0       2.395750      6.355460      5.523690     0.013185    0.013185   -0.013185
             9    1       2.969790      2.969790      2.969790    -0.000000   -0.000000   -0.000000
            10    1       6.929510      0.989930      4.949650    -0.000000   -0.000000   -0.000000
            11    1       4.949650      6.929510      0.989930    -0.000000   -0.000000   -0.000000
            12    1       0.989930      4.949650      6.929510    -0.000000   -0.000000   -0.000000
            13    2       0.305750      0.305750      0.305750     0.017919    0.017919    0.017919
            14    2       4.265470      3.653970      7.613690     0.017919   -0.017919   -0.017919
            15    2       7.613690      4.265470      3.653970    -0.017919    0.017919   -0.017919
            16    2       3.653970      7.613690      4.265470    -0.017919   -0.017919    0.017919
            17    2       5.633830      5.633830      5.633830    -0.017919   -0.017919   -0.017919
            18    2       1.674110      6.245320      2.285610    -0.017919    0.017919    0.017919
            19    2       2.285610      1.674110      6.245320     0.017919   -0.017919    0.017919
            20    2       6.245320      2.285610      1.674110     0.017919    0.017919   -0.017919
            21    2       6.929510      6.929510      6.929510    -0.000000   -0.000000   -0.000000
            22    2       2.969790      4.949650      0.989930    -0.000000   -0.000000   -0.000000
            23    2       0.989930      2.969790      4.949650    -0.000000   -0.000000   -0.000000
            24    2       4.949650      0.989930      2.969790    -0.000000   -0.000000   -0.000000
 Energy
        -79.565220710000
 PlusStress:  xx          yy          zz          yz          xz          xy
         0.31892     0.31892     0.31892     0.00000    -0.00000    -0.00000
 Feature   EFS_by	VASP
 Feature   mindist	2.179301
END_CFG

BEGIN_CFG
 Size
    24
 Supercell
         6.238846     -0.000902      0.000646
         0.002132     10.082543      0.277268
        -0.001099      0.292577      7.582220
 AtomData:  id type       cartes_x      cartes_y      cartes_z           fx          fy          fz
             1    0       0.285330      9.016640      0.763270     0.001343    0.003194   -0.009422
             2    0       3.830440      8.630100      1.998150     0.009849    0.001987    0.007456
             3    0       0.709910      1.601370      2.072970     0.009469   -0.002025   -0.008066
             4    0       3.403390      1.219490      3.306770     0.002262   -0.003617    0.011161
             5    0       3.829160      9.086550      6.058110     0.002186   -0.004834    0.002431