BEGIN_CFG
 Size
    24
 Supercell
         8.049311      0.000000      0.000000
         0.000000      8.049311      0.000000
         0.000000      0.000000      8.049311
 AtomData:  id type       cartes_x      cartes_y      cartes_z           fx          fy          fz
             1    0       4.818550      0.699840      5.408530     1.023641    0.916882    0.282576
             2    0       2.586090      5.822290      6.532330     0.286238    0.723014    0.083317
             3    0       0.682600      0.989810      5.218710    -0.124503   -0.728570    0.380516
             4    0       7.556710      0.633770      1.195050     0.598392   -0.203513    0.078212
             5    0       4.880110      3.879630      5.927520     0.185879    0.127392    0.130226
             6    0       0.699500      3.533540      4.250540     0.222707    0.010222   -0.208371
             7    0       6.731890      6.494370      4.303170    -0.157503    0.485787    0.228868
             8    0       4.028620      0.475940      8.018330    -0.515711    0.040445   -0.962178
             9    1       1.164320      3.591910      0.004360    -1.487733   -3.543383    0.999905
            10    1       3.516980      4.975330      1.760340     0.721584    3.850387    1.951648
            11    2       3.767580      7.367840      3.792410    -2.493950   -1.015926    3.103475
            12    2       5.019890      7.891110      2.029950     2.717516   -0.173262   -1.115579
            13    3       4.930810      6.675700      6.173980    -0.690162   -0.830021   -1.096422
            14    3       3.221340      3.322510      0.606710     0.491452   -0.668681   -0.317805
            15    3       6.561670      2.589370      0.636340    -0.014541    1.430232    0.555299
            16    3       2.312440      5.567870      4.003970     0.486113   -1.076367   -0.774166
            17    3       5.702640      5.222100      2.234870    -1.462685    0.724388   -0.221967
            18    3       2.507420      6.941850      1.140820     1.156887   -1.645247   -0.189677
            19    3       0.483660      4.774700      6.515670    -0.695147    0.885378   -0.555689
            20    3       8.042380      6.671270      7.348110     0.208248   -0.288355   -1.165986
            21    3       2.911410      1.360150      4.426540    -0.182969    0.109391   -0.433100
            22    3       6.968980      0.842470      3.535440    -0.307755   -0.486576    0.222262
            23    3       1.329840      1.380350      7.535920     0.482419    1.245017   -0.160162
            24    3       6.413200      1.603100      6.974400    -0.448933    0.077439   -0.780202
 Energy
        -94.224218510000
 PlusStress:  xx          yy          zz          yz          xz          xy
        -0.70121    -5.77209     8.96271    -2.75340    -1.84051     3.47664
 Feature   EFS_by	VASP
 Feature   mindist	1.980695
END_CFG

BEGIN_CFG
 Size
    24
 Supercell
         8.049311      0.000000      0.000000
         0.000000      8.049311      0.000000
         0.000000      0.000000      8.049311
 AtomData:  id type       cartes_x      cartes_y      cartes_z           fx          fy          fz
             1    0       5.380630      1.176040      4.704410    -0.539312    0.672846    0.646240
             2    0       2.424350      6.157030      6.919400    -0.078706   -1.172518   -0.046936
             3    0       0.531830      7.401250      5.162770     0.490597    0.672370   -2.856384
             4    0       0.002370      0.562460      0.925730    -0.163051   -0.600370    0.343220
             5    0       5.159220      3.786770      6.820130    -0.358879    0.575922   -0.394037
             6    0       7.816650      2.086360      5.718390     1.797637    0.858130   -2.498515
             7    0       6.766060      6.066720      3.456140     0.933481    0.586153    1.300417
             8    0       3.068440      0.380050      7.489360     0.925422   -0.003083    0.410344
             9    1       0.678220      3.142340      0.315820     0.325908    4.246758    0.723506
            10    1       3.405280      5.437400      2.243010    -0.948992   -0.272688   -0.768445
            11    2       3.713990      7.327280      4.577710    -2.366451    1.074169   -5.706516
            12    2       4.933330      0.005090      2.069390    -0.866605   -0.436331    0.306979
            13    3       4.642520      6.580980      6.165110     2.208732   -1.034447    4.081434
            14    3       3.007340      3.755600      0.865740    -0.780246   -1.067431    0.031190
            15    3       6.426520      3.179170      0.474900     0.073437   -1.981299    1.004190
            16    3       2.345370      5.184100      4.069230     0.057534    0.518140    0.132949
            17    3       5.513380      5.520130      1.944360    -0.773720   -0.413324   -1.004669
            18    3       2.329820      6.770800      1.027690    -0.107805    1.277699    0.820717
            19    3       7.858370      4.812430      6.554710     0.959970    1.052428    0.159636
            20    3       0.206580      6.906160      7.030920    -0.925077   -1.466482    1.366845
            21    3       2.985630      1.428060      4.154290     0.019220   -0.732860    0.981842
            22    3       6.860100      0.495770      3.307500     1.932471   -0.269712    0.105569
            23    3       1.291100      1.698140      7.211460     1.660860   -2.106882   -1.388241
            24    3       6.413200      1.603100      6.974400    -3.447182   -0.031162    2.274248
 Energy
        -93.911858020000
 PlusStress:  xx          yy          zz          yz          xz          xy
        11.44380     7.88181    18.18488     0.29286     2.26909     0.40768
 Feature   EFS_by	VASP
 Feature   mindist	1.944421
END_CFG

BEGIN_CFG
 Size
    24
 Supercell
         8.049311      0.000000      0.000000
         0.000000      8.049311      0.000000
         0.000000      0.000000      8.049311
 AtomData:  id type       cartes_x      cartes_y      cartes_z           fx          fy          fz
             1    0       5.409050      2.224640      4.212290    -0.187552   -0.533355    0.339162
             2    0       2.364830      4.789820      7.144670     0.702303    0.689858   -0.572107
             3    0       1.393680      7.172800      2.860450    -2.410345    0.917963    3.456767
             4    0       7.920480      0.018700      0.834150    -0.102434    0.196198   -0.680180
             5    0       5.171870      4.543820      0.019620    -0.143273   -0.198433   -1.487385
             6    0       0.771790      1.153950      4.487600    -0.962444    0.341778    0.714378
             7    0       6.923260      6.068340      4.348270     0.103444    0.507035    0.297302
             8    0       3.912260      0.671940      7.406270    -0.161527    0.699256   -0.054167
             9    1       0.448350      3.565410      7.972280     0.765214   -3.102485    1.051076
            10    1       2.957940      5.732760      2.376120     1.735751   -2.998234   -1.471986
            11    2       3.499610      7.217560      4.709410     1.632742   -0.393113    0.583940
            12    2       4.706630      0.010470      2.232770     0.135603    0.531210    0.817116
            13    3       4.584780      6.663500      6.861560    -1.001951   -0.629276   -2.045851
            14    3       2.241500      3.664780      1.239110     0.125946    1.618562    0.473204
            15    3       6.357040      2.820750      0.714010     1.619642   -0.545764   -0.695834
            16    3       2.279450      4.980570      4.289600     0.121065    1.182447   -0.780179
            17    3       5.120080      5.914060      1.585720    -0.368458   -0.888223    2.062785
            18    3       2.200120      7.249480      1.147370     1.248534    0.239526   -2.468128
            19    3       7.613930      5.046270      6.812030    -1.234558   -0.101876   -0.570847
            20    3       0.204360      6.896840      6.431530     0.782891    0.978185    0.236797
            21    3       2.876150      1.334630      4.378590     1.482787   -0.083085   -0.252513
            22    3       7.448290      8.007440      3.122840    -1.572398    0.444808    0.005685
            23    3       1.683310      2.066860      6.824630    -1.337955    1.004309    0.444079
            24    3       6.413200      1.603100      6.974400    -1.017075    0.117990    0.593776
 Energy
        -94.397314750000
 PlusStress:  xx          yy          zz          yz          xz          xy
         1.91575     8.79729     4.62548     6.37327    -3.84586    -5.04641
 Feature   EFS_by	VASP
 Feature   mindist	1.894959
END_CFG

BEGIN_CFG
 Size
    24
 Supercell
         8.049311      0.000000      0.000000
         0.000000      8.049311      0.000000
         0.000000      0.000000      8.049311
 AtomData:  id type       cartes_x      cartes_y      cartes_z           fx          fy          fz
             1    0       5.203910      2.016020      4.671320     1.391810    0.624352   -0.067695
             2    0       2.628970      5.298770      6.178160    -0.964510   -0.735798    0.727254
             3    0       1.614000      7.579240      3.703180    -1.134903    0.307670   -0.418038
             4    0       7.090180      7.540390      0.091830     0.204402   -0.127853    0.126306
             5    0       5.341800      4.450120      7.602290    -0.530795    0.248598    0.685014
             6    0       7.969310      1.739850      5.303110     0.785372   -0.190012   -0.050165
             7    0       6.290150      6.984340      4.804310     0.751654   -0.492302    0.635752
             8    0       3.859020      1.396390      7.319930    -0.246874   -0.443869   -0.153038
             9    1       0.373600      3.478810      8.037120     1.682210    0.309787   -2.241229
            10    1       2.787230      5.485590      1.669920     2.372525   -0.756791    2.695084
            11    2       3.815660      7.033750      4.647580    -0.206635   -0.333325   -1.263669
            12    2       4.509350      0.089120      2.562100     0.024109    0.208117   -0.676621
            13    3       4.163020      6.790790      6.730530     1.184621   -0.295825    1.474113
            14    3       1.588910      3.757160      1.684740    -0.151357   -0.168389    0.241144
            15    3       7.102050      2.198050      0.958490    -0.712825   -0.066447   -0.819034
            16    3       2.267030      5.384180      4.051100     0.119629    0.387854   -1.072387
            17    3       4.972410      5.298280      2.033290    -1.347532   -0.504174   -1.515279
            18    3       2.414020      7.423070      1.328600    -1.789593    0.960439   -0.877451
            19    3       7.320270      5.213840      6.960150     1.655362    0.058442    0.036490
            20    3       0.580090      7.037000      6.243060    -0.993050   -0.621324    0.693184
            21    3       3.293380      1.351060      4.518700    -1.634654   -0.685776   -0.380974
            22    3       6.716310      7.942490      2.890770     2.278478    0.856491    0.611297
            23    3       1.824930      2.529730      6.517620    -1.343286    1.251654    1.258428
            24    3       6.413200      1.603100      6.974400    -1.371429    0.174895    0.390659
 Energy
        -95.395501250000
 PlusStress:  xx          yy          zz          yz          xz          xy
        15.93727     4.37843     9.23648     0.82973    -0.43778     3.22881
 Feature   EFS_by	VASP
 Feature   mindist	2.002402
END_CFG

BEGIN_CFG
 Size
    24
 Supercell
         8.049311      0.000000      0.000000
         0.000000      8.049311      0.000000
         0.000000      0.000000      8.049311
 AtomData:  id type       cartes_x      cartes_y      cartes_z           fx          fy          fz
             1    0       5.815840      2.085160      4.721990    -0.375622   -0.081887   -0.275205
             2    0       2.073810      5.373100      5.986570     0.922814    0.221818   -0.004205
             3    0       0.850020      0.105800      3.109670     1.076699   -0.175469    0.526028
             4    0       7.207660      7.274230      1.103800     0.394125    0.001812   -0.142726
             5    0       5.181360      4.991350      8.015640     0.435250   -0.183734   -0.693343
             6    0       0.511900      1.818720      5.450130    -0.559966   -0.371916   -0.224276
             7    0       6.934630      7.469720      5.814350    -2.254719    0.891042   -1.038925
             8    0       2.926330      0.534490      6.993090    -0.097056    0.311582    0.333273
             9    1       0.681020      3.563990      0.058130     1.847014    3.268522   -2.859856
            10    1       3.050890      5.366210      2.007810    -0.953906   -0.972692   -1.886291
            11    2       4.101230      6.700530      4.512630     1.683685    0.989217    1.597562
            12    2       4.301660      0.366140      2.584930     0.426677    0.197801   -0.571018
            13    3       4.155880      6.698610      6.986540     0.072573   -0.323715   -1.412420
            14    3       1.043860      4.000440      2.023080     1.473892    0.951411    0.465714
            15    3       7.828670      1.993700      0.691530    -3.350747   -3.273658   -0.309824
            16    3       2.189330      5.966600      3.749290    -1.923718   -0.185821    2.738551
            17    3       4.714790      4.031850      1.882520    -0.946747    1.010021    0.508867
            18    3       1.829820      7.582370      1.254400     1.609851   -0.927827   -0.886164
            19    3       7.579720      5.166130      7.037650    -2.302945   -0.907957    0.852947
            20    3       0.588840      6.817970      6.621970     1.689967    0.549460    0.410262
            21    3       3.340320      1.169360      4.547520     0.042326   -0.151860    0.017915
            22    3       6.829950      0.451190      3.210100    -0.971533    0.287059    1.182453
            23    3       1.836000      3.273800      6.364360     1.323029   -0.973437    0.988756
            24    3       6.413200      1.603100      6.974400     0.747845   -0.103539    0.630374
 Energy
        -95.315760890000
 PlusStress:  xx          yy          zz          yz          xz          xy
        14.45298    12.12748    13.00961     0.84860    -1.62414     6.84225
 Feature   EFS_by	VASP
 Feature   mindist	1.918332
END_CFG

BEGIN_CFG
 Size
    24
 Supercell
         8.049311      0.000000      0.000000
         0.000000      8.049311      0.000000
         0.000000      0.000000      8.049311
 AtomData:  id type       cartes_x      cartes_y      cartes_z           fx          fy          fz
             1    0       5.091250      2.669530      4.450720     0.499094   -0.234900   -0.207924
             2    0       2.232640      5.592590      6.591540     1.234601    0.545406   -0.723232
             3    0       1.771140      0.409810      3.269290    -0.842144   -0.686588   -0.272639
             4    0       7.878700      7.983050      2.044810    -0.488290   -0.168857   -0.379387
             5    0       4.801790      4.210540      7.854230     0.177100    0.046451   -0.391339
             6    0       0.621760      1.693270      5.230980     0.373792    0.735226    0.842076
             7    0       6.240670      7.548980      5.580130     1.417908    0.868130    0.932664
             8    0       2.568860      0.504400      7.024470     0.443298    0.038317    0.118236
             9    1       0.957840      3.732520      7.934920    -0.961827   -1.309322    0.843683
            10    1       2.881520      5.224730      2.306320    -2.246487    0.731186    0.379068
            11    2       4.461290      6.425190      4.629250    -2.418980    0.166221   -0.403066
            12    2       4.179840      0.807490      2.285650     0.326383    0.090796   -0.352461
            13    3       4.457410      6.634730      6.892540     0.160826   -0.310554   -0.252719
            14    3       0.820910      4.442010      1.949850     0.781895   -0.461004   -0.762394
            15    3       0.059960      1.611570      0.127390     0.153768    0.672814   -0.513145
            16    3       1.809940      6.199000      4.239070     1.758815   -0.996119   -0.562185
            17    3       4.054930      3.409720      1.841340     0.371521    0.391440    0.887277
            18    3       2.075180      7.306560      0.976620     1.123479    0.474047    1.575367
            19    3       7.375030      4.920680      7.115580    -1.012348   -1.939980   -0.353991
            20    3       0.376310      6.584090      6.971550    -0.702718    1.788172   -0.101599
            21    3       3.388500      1.004180      4.539450     0.861895    0.200024    0.109828
            22    3       7.071900      1.010260      4.014110    -0.517484   -0.560992   -1.682532
            23    3       2.541050      3.415270      6.558410    -0.335637   -0.656968    0.651676
            24    3       6.413200      1.603100      6.974400    -0.205855    0.533984    0.621247
 Energy
        -95.994297100000
 PlusStress:  xx          yy          zz          yz          xz          xy
         1.68834     1.42581     3.91690    -0.29742     5.73887     8.83563
 Feature   EFS_by	VASP
 Feature   mindist	1.972668
END_CFG

BEGIN_CFG
 Size
    24
 Supercell
         8.049311      0.000000      0.000000
         0.000000      8.049311      0.000000
         0.000000      0.000000      8.049311
 AtomData:  id type       cartes_x      cartes_y      cartes_z           fx          fy          fz
             1    0       4.936310      3.111310      4.074720     0.342770   -0.262964    0.322527
             2    0       2.727090      6.407090      7.140180    -0.565644   -0.333076    0.385564
             3    0       1.488310      0.255330      3.971350     0.105637   -0.159453   -0.119919
             4    0       7.138280      0.111240      1.332670     0.148804    0.098173    0.162524
             5    0       5.127590      4.005790      0.270070    -0.282289    0.155297   -0.227939
             6    0       0.509200      2.873080      5.478960     0.003461   -0.510800   -0.880518
             7    0       7.069050      8.002820      5.723790    -0.085413   -1.092997    0.080200
             8    0       3.906250      0.927820      6.763530     0.340394   -0.176458    0.038021
             9    1       0.931730      3.541010      7.894000    -1.076043   -1.064330    0.372244
            10    1       2.041560      5.347710      2.468570     4.288762    1.350468    2.472084
            11    2       4.503250      6.373250      4.551380     0.492522    0.167044   -0.021574
            12    2       4.153860      1.269920      1.982660    -0.259279   -0.426156    0.715785
            13    3       5.006460      6.449550      6.845020    -1.353842    0.499523   -0.678272
            14    3       0.428360      4.564970      1.744950    -3.244627   -1.666210   -0.832466
            15    3       0.657040      1.203720      7.855880    -1.791344    1.484624   -0.063493
            16    3       2.171990      5.759970      4.649980    -1.028175   -0.158755   -0.857079
            17    3       3.423400      3.553030      2.306840     0.857704    0.445066   -0.190602
            18    3       3.025550      7.091230      1.661440    -0.644715   -0.773885   -0.995125
            19    3       7.124760      4.241280      6.798310     1.114857    1.058018    1.096415
            20    3       7.810600      6.408550      7.395120     1.093172   -0.805772   -0.579723
            21    3       3.891820      0.759060      4.326190    -0.033506    0.327525    0.073211
            22    3       7.445780      1.253760      4.038870     0.298623    0.401434   -1.680559
            23    3       2.723320      3.127730      6.954830     0.710170    1.044290   -0.237713
            24    3       6.413200      1.603100      6.974400     0.591698    0.395701    1.642747
 Energy
        -96.461597740000
 PlusStress:  xx          yy          zz          yz          xz          xy
         3.92426    -6.05950     3.88181    -0.32781    -0.84464     7.11213
 Feature   EFS_by	VASP
 Feature   mindist	1.933578
END_CFG

BEGIN_CFG
 Size
    24
 Supercell
         8.049311      0.000000      0.000000
         0.000000      8.049311      0.000000
         0.000000      0.000000      8.049311
 AtomData:  id type       cartes_x      cartes_y      cartes_z           fx          fy          fz
             1    0       5.892360      2.483750      4.336740     0.391084   -0.213253   -0.114895
             2    0       2.203510      5.939720      0.002650     0.775015   -0.425369   -0.478546
             3    0       1.813870      0.053450      4.950910    -0.035759    0.316454   -0.507619
             4    0       6.467560      0.298420      0.875640     0.324674   -0.105788    0.553989
             5    0       6.062300      5.102270      0.757600    -0.309588    0.039760   -0.375389
             6    0       0.650020      3.724340      3.768830     0.759467   -2.075992    2.617030
             7    0       7.052570      7.414760      5.277740     0.010984    0.165515    0.153818
             8    0       4.632920      0.459250      6.342120    -0.417725    0.048960    0.516041
             9    1       0.690870      3.131280      0.014800     1.928211    1.263582   -0.245684
            10    1       2.064140      5.524330      2.913800     1.208765   -0.592522   -1.923531
            11    2       4.595560      6.342000      4.358160     0.229943   -0.241862    0.781647
            12    2       4.058820      1.531070      1.914830    -0.405560    0.210529   -0.010470
            13    3       4.748460      6.322680      6.742940     0.004868    0.273014   -0.528295
            14    3       7.942360      4.278540      2.058350     0.715159    0.905252   -2.381820
            15    3       0.027790      1.171630      7.441440     7.986894   -2.573926    2.000911
            16    3       1.887710      5.510860      4.952370    -0.217149    0.914089   -0.284874
            17    3       3.649040      3.699030      2.731280    -0.096379   -0.100850    0.145947
            18    3       3.523560      6.692610      1.758720    -1.418088    0.187662    0.134029
            19    3       7.385870      4.222160      6.770350    -1.179543   -1.649477   -0.614730
            20    3       0.020300      5.907970      7.460930     0.121492    3.424671    0.290530
            21    3       4.276050      0.777880      4.160700    -0.721843   -0.446570    0.348111
            22    3       7.876050      1.252180      3.054220    -0.413322   -0.510075    0.939438
            23    3       2.680420      3.532370      7.265600    -1.408615   -0.707970    1.388769
            24    3       6.413200      1.603100      6.974400    -7.830580    1.882870   -2.476079
 Energy
        -93.687365000000
 PlusStress:  xx          yy          zz          yz          xz          xy
         9.31740     7.97955     5.13867    -2.27108    11.04806     0.85355
 Feature   EFS_by	VASP
 Feature   mindist	1.781252
END_CFG

BEGIN_CFG
 Size
    24
 Supercell
         8.049311      0.000000      0.000000
         0.000000      8.049311      0.000000
         0.000000      0.000000      8.049311
 AtomData:  id type       cartes_x      cartes_y      cartes_z           fx          fy          fz
             1    0       7.549840      1.201140      4.538800    -0.590075    0.423312    0.103235
             2    0       2.358900      6.311430      7.832370    -0.026192   -0.287876   -0.035182
             3    0       2.135260      7.993460      4.572720     0.188586    0.219895   -0.350811
             4    0       6.462610      0.710860      0.954420     0.213270    0.030357    0.529560
             5    0       6.335070      6.008840      0.308370    -0.314951   -0.605279   -0.201273
             6    0       2.538310      2.713600      4.830640     0.333191    0.225029    0.256878
             7    0       7.284900      6.384850      5.178580    -0.773043   -0.128704   -0.196642
             8    0       3.906910      0.883480      7.155880     0.238143   -0.211962   -0.303133
             9    1       0.491150      3.015200      0.306670     2.484907   -1.736896   -1.975080
            10    1       2.209280      5.303950      2.982230     0.906757   -0.927792   -1.829423
            11    2       4.726690      6.201720      4.069460     0.254692    1.070962    0.772510
            12    2       3.755370      1.805170      1.857770     0.033692    0.209551    0.374771
            13    3       4.357840      6.133020      6.847990     0.606692    0.664967   -1.171733
            14    3       0.148440      3.955780      2.054050     0.422613    1.681606    2.453872
            15    3       0.876480      0.824460      7.322350    -0.294088    1.543059   -0.637623
            16    3       1.362670      5.900860      4.772320     0.809749   -0.850093   -0.755750
            17    3       4.210030      3.634070      3.372210    -1.764045    0.533361   -0.008457
            18    3       3.604540      6.497880      1.687060    -0.666545   -0.333226    1.317763
            19    3       7.530680      4.136990      6.857780    -0.335353    0.659098   -0.292024
            20    3       0.251110      6.350010      7.168230    -0.979493   -0.608833    1.133270
            21    3       4.398190      0.720030      4.156160    -0.522696   -0.548628    0.362378
            22    3       0.263940      0.730640      2.333850     0.301380   -0.132602    1.071068
            23    3       2.764330      3.333180      0.045830    -0.778914   -0.604826   -0.217294
            24    3       6.413200      1.603100      6.974400     0.265785   -0.245566   -0.389696
 Energy
        -92.646481960000
 PlusStress:  xx          yy          zz          yz          xz          xy
        -8.07871    -2.25464    -0.31116    -0.71472     0.54906     1.93115
 Feature   EFS_by	VASP
 Feature   mindist	2.013822
END_CFG

BEGIN_CFG
 Size
    24
 Supercell
         8.049311      0.000000      0.000000
         0.000000      8.049311      0.000000
         0.000000      0.000000      8.049311
 AtomData:  id type       cartes_x      cartes_y      cartes_z           fx          fy          fz
             1    0       7.897930      0.604480      5.719010     0.059921   -0.126350   -0.211041
             2    0       1.366500      6.375960      5.770710     0.182700   -0.398354    0.849191
             3    0       2.437510      7.426200      3.736730     0.978273    0.591691    0.037937
             4    0       6.359510      1.323100      1.690280     0.259314   -0.034235   -0.095205
             5    0       4.918490      4.618320      0.047570     1.350587    0.266557   -0.648870
             6    0       3.531930      2.897870      6.389320     0.873532   -0.287162   -0.930944
             7    0       8.006380      3.921390      4.383570    -0.030576   -0.080129    0.427431
             8    0       5.562200      7.507060      7.477850    -0.976281   -0.115779   -0.385790
             9    1       1.081000      2.140730      7.941620     0.595185    0.999049   -0.561486
            10    1       2.436200      4.639390      2.609840     0.049172    0.644815   -1.817017
            11    2       5.452710      6.539310      4.133110    -1.118239    0.171036    0.523167
            12    2       3.540620      1.816410      2.721400     0.458934   -2.972178   -3.597202
            13    3       3.829350      6.123600      6.004740     0.769895    0.107633   -1.186297
            14    3       0.513450      3.490530      2.075700     0.205234   -0.868510    0.521804
            15    3       2.062530      1.290650      5.970600    -1.728553   -0.636786    1.514926
            16    3       0.864040      5.938130      3.406890    -0.120391   -0.080109    0.180776
            17    3       3.346260      3.335190      4.092470    -0.550590    4.020060    1.336281
            18    3       4.133900      6.131670      1.462640    -0.949357    0.181460    2.822676
            19    3       7.750400      4.135320      7.105790    -0.657594    0.646786   -0.550716
            20    3       7.376490      6.230300      7.657190     1.567575   -0.925556   -0.645315
            21    3       4.924120      0.940440      4.337750     0.879107   -1.207779   -0.331910
            22    3       1.008820      0.798550      2.265200    -0.193131    0.882985   -0.809283
            23    3       3.010380      3.658130      0.191120    -2.189131   -0.939284    2.186289
            24    3       6.413200      1.603100      6.974400     0.275710    0.139859    1.324454
 Energy
        -93.067841330000
 PlusStress:  xx          yy          zz          yz          xz          xy
        -5.96367     5.99732    -6.82177     6.31800     1.91916    -1.19483
 Feature   EFS_by	VASP
 Feature   mindist	2.055311
END_CFG

BEGIN_CFG
 Size
    24
 Supercell
         8.049311      0.000000      0.000000
         0.000000      8.049311      0.000000
         0.000000      0.000000      8.049311
 AtomData:  id type       cartes_x      cartes_y      cartes_z           fx          fy          fz
             1    0       7.805950      7.932660      6.087640     0.134177    0.281162    0.051268
             2    0       1.347110      5.136080      6.182660     1.204843    0.787611   -0.403980
             3    0       2.903830      7.401710      4.471160    -0.798293    0.666595   -0.545613
             4    0       6.148090      1.650520      1.159230     0.366215   -0.129973    0.563433
             5    0       5.668100      4.781070      7.878040    -0.114961    0.261469    0.474131