BEGIN_CFG
 Size
    24
 Supercell
         8.012684      0.000000      0.000000
         0.000000      8.012684      0.000000
         0.000000      0.000000      8.012684
 AtomData:  id type       cartes_x      cartes_y      cartes_z           fx          fy          fz
             1    0       5.182910      5.220840      6.772650    -0.045301    0.481884   -0.512673
             2    0       3.171680      7.346340      1.110920     0.308738   -0.000958   -0.069239
             3    0       0.625680      4.941340      4.922280     0.560941    0.296684    0.353151
             4    0       2.961740      7.385980      4.605340     0.027101   -0.158577    0.010308
             5    0       0.638630      0.719120      7.508160    -0.289138    0.021737    0.432743
             6    0       2.818390      2.898450      7.538970    -0.357100    0.666974    0.014408
             7    0       6.679550      7.726330      2.671010    -0.194619   -0.084599    0.461711
             8    0       5.341670      2.731480      2.547530    -0.044710    0.261535    0.013069
             9    1       3.427510      4.545210      3.787820     0.410698   -0.847516    0.088093
            10    1       5.031360      1.381900      7.386640     0.827421   -1.092781   -0.763553
            11    1       7.986770      4.879050      1.382670     0.126150    0.141529    0.364436
            12    1       2.151480      2.102740      3.295610     0.657680    1.431880   -1.059155
            13    2       6.535970      5.997760      4.668470    -0.064173   -0.904604   -0.773140
            14    2       3.995440      0.781670      2.855150    -0.764397    0.094580   -0.304332
            15    2       2.956010      0.618870      6.652900     0.486320    0.619066    1.063896
            16    2       0.705440      0.534870      4.061300     0.034240   -1.716348   -0.518404
            17    2       7.098070      4.185230      3.532540    -0.694218    0.830749   -0.294727
            18    2       5.958900      1.681280      5.047060    -0.454161   -0.360846    1.125638
            19    2       0.819520      2.762700      1.090020     0.752490   -0.881008    0.222516
            20    2       5.356270      3.443010      0.178660    -0.549507   -0.844651    0.390569
            21    2       6.080470      7.595570      0.392780    -0.082993    0.519089   -0.937098
            22    2       1.954270      5.794520      2.536980    -0.233354    0.655384   -0.511116
            23    2       7.971170      1.726530      5.487650    -0.385230    0.969181    1.040830
            24    2       2.792670      5.161760      5.908310    -0.057212   -0.111237    0.135672
 Energy
        -97.865689340000
 PlusStress:  xx          yy          zz          yz          xz          xy
         3.07885     1.63517    -1.46222     1.05952    -0.71348    -0.66557
 Feature   EFS_by	VASP
 Feature   mindist	2.003115
END_CFG

BEGIN_CFG
 Size
    24
 Supercell
         8.012684      0.000000      0.000000
         0.000000      8.012684      0.000000
         0.000000      0.000000      8.012684
 AtomData:  id type       cartes_x      cartes_y      cartes_z           fx          fy          fz
             1    0       5.323330      5.365820      6.562560    -0.054222   -0.147808    0.148695
             2    0       3.877060      7.292030      1.020990    -0.308625    0.155206    0.052391
             3    0       0.632690      3.966750      5.309640    -0.072176    0.511832   -0.264415
             4    0       2.572330      7.169150      4.602250     0.423764    0.154434    0.274962
             5    0       0.637030      0.574070      7.861640    -0.052072   -0.009735   -0.095788
             6    0       2.776450      3.327490      7.775720     0.376868   -0.179525   -0.130929
             7    0       6.698080      7.615970      2.903300    -0.185467   -0.046222    0.028503
             8    0       5.019150      2.793970      2.512180     0.187134   -0.185242   -0.062965
             9    1       3.506170      4.514050      3.902480    -0.179531   -0.254679   -0.753675
            10    1       5.203960      1.320770      7.355870    -0.675790    0.561561    0.807847
            11    1       0.114710      4.842540      1.558030    -0.075791   -0.505157   -0.779735
            12    1       2.158130      2.174400      3.286160    -0.578096   -0.147440   -0.566503
            13    2       6.699980      5.586120      4.579860    -0.405070    1.776590    1.109815
            14    2       3.842560      0.700270      3.019610     0.358193    0.044983   -0.528595
            15    2       3.093240      0.889980      6.853680    -0.421111   -0.332961    0.272061
            16    2       0.699680      0.386170      4.178230    -0.444544    0.816598    0.105776
            17    2       6.915670      4.023030      3.393910     0.693793   -1.677988   -0.817886
            18    2       5.873980      1.295500      5.258340     0.295490    0.462558   -1.112739
            19    2       0.957810      2.549170      1.154670     0.354712    0.660094    0.719882
            20    2       5.417790      3.372620      0.237370    -0.243203   -0.176992   -0.242592
            21    2       6.277880      7.620470      0.239800     0.164293   -0.668371    0.623673
            22    2       2.053220      5.861200      2.442870     0.526813   -0.130609    0.249374
            23    2       7.867520      1.674670      5.643370     0.584069   -0.676606    0.192011
            24    2       2.792670      5.161760      5.908310    -0.291385   -0.058866    0.770318
 Energy
        -98.247374790000
 PlusStress:  xx          yy          zz          yz          xz          xy
         3.66366     1.03579     5.26731     2.94953    -3.00711    -1.43551
 Feature   EFS_by	VASP
 Feature   mindist	1.973892
END_CFG

BEGIN_CFG
 Size
    24
 Supercell
         8.012684      0.000000      0.000000
         0.000000      8.012684      0.000000
         0.000000      0.000000      8.012684
 AtomData:  id type       cartes_x      cartes_y      cartes_z           fx          fy          fz
             1    0       5.226400      5.196490      6.639130     0.115512    0.052067   -0.136612
             2    0       3.555610      7.428180      0.965910     0.126422   -0.383532    0.200541
             3    0       0.572110      4.390550      5.133940     0.471217    0.015800    0.275792
             4    0       3.023510      7.697120      5.266600    -0.271481   -0.444506   -0.592904
             5    0       0.554560      0.528260      0.112740    -0.194097   -0.117230    0.134266
             6    0       3.124700      3.403690      7.640250    -0.512803   -0.039819   -0.021639
             7    0       6.050830      7.395110      3.180420     0.084615    0.156763   -0.209117
             8    0       5.181930      2.538140      2.456310     0.220312    0.295023    0.076599
             9    1       3.533590      4.386660      3.792220     0.103923    0.213587    0.406974
            10    1       5.200330      1.264150      7.399940     0.621147   -1.383424   -0.013768
            11    1       0.235260      4.729340      1.499840     0.028056    0.812221    0.155354
            12    1       2.119350      2.230200      3.250250     0.037283   -0.602870    0.619444
            13    2       6.678730      5.546570      4.560610    -0.361171   -0.588181   -0.247262
            14    2       3.868150      0.712860      2.880820    -0.053416    0.250202    0.419580
            15    2       3.029360      0.879510      7.219460    -0.374660   -0.181983   -0.249665
            16    2       0.719770      0.425640      4.194100     0.337945    0.666866    1.154262
            17    2       7.106660      3.765590      3.392360     0.227522    1.104749    0.302474
            18    2       5.955670      1.280560      5.168190     0.337968    0.146291    1.118146
            19    2       1.187700      2.668620      1.213910     0.058073   -0.612218   -0.753784
            20    2       5.376800      3.282330      0.210430     0.546921    0.417622    0.150614
            21    2       6.369810      7.409830      0.397540    -0.860893    0.890429   -0.297708
            22    2       2.340020      5.823920      2.440380    -0.851746   -0.300210   -0.339983
            23    2       7.958170      1.509530      5.972220    -0.027245   -0.324521   -2.115122
            24    2       2.792670      5.161760      5.908310     0.193786   -0.068944   -0.037678
 Energy
        -98.363219130000
 PlusStress:  xx          yy          zz          yz          xz          xy
         1.95246    -0.43293    -1.14264     0.60586    -0.67217     0.28886
 Feature   EFS_by	VASP
 Feature   mindist	2.169999
END_CFG

BEGIN_CFG
 Size
    24
 Supercell
         8.012684      0.000000      0.000000
         0.000000      8.012684      0.000000
         0.000000      0.000000      8.012684
 AtomData:  id type       cartes_x      cartes_y      cartes_z           fx          fy          fz
             1    0       5.272080      4.887570      6.558020    -0.089458    0.036597   -0.060722
             2    0       3.480730      7.153640      1.110800     0.099561    0.189884    0.037441
             3    0       0.625790      5.174730      5.034010     0.528747    0.215690    0.228661
             4    0       3.023440      7.490990      5.091540     0.245888   -0.004238    0.286507
             5    0       0.194500      0.404460      0.547470     0.420288    0.351252   -0.204288
             6    0       2.997040      3.234700      7.409040     0.112854   -0.113912    0.175272
             7    0       5.743670      7.381070      3.142780     0.181854    0.046680    0.018416
             8    0       5.667460      2.657840      2.506880    -0.282291   -0.040846   -0.030588
             9    1       3.584650      4.293120      3.759630    -0.109621    0.207493    0.602475
            10    1       5.189720      1.046720      7.519480    -1.170170    1.759181   -0.633047
            11    1       0.359390      4.744030      1.424750    -1.002940   -0.298893   -0.645753
            12    1       2.139740      2.195300      3.335700     0.021641    0.414242   -1.001774
            13    2       6.440270      5.453820      4.511100     0.246171   -0.194102   -0.460348
            14    2       3.893130      0.855740      2.910670     0.427216   -0.530070    0.057415
            15    2       2.963390      0.676190      7.373880     0.738920   -0.179509   -0.800384
            16    2       1.005920      0.448780      4.388560    -0.290982   -0.926194   -1.104848
            17    2       7.553990      3.856840      3.494440    -1.082946    0.270393    0.083745
            18    2       6.041090      1.351750      5.354010    -0.108673   -0.438158   -0.406544
            19    2       1.267100      2.631730      0.953980    -0.378600   -0.231822    1.224930
            20    2       5.530950      3.208160      0.164430    -0.243705   -0.519457    0.279208
            21    2       6.120720      7.456380      0.540230     0.674594   -1.420144    0.784840
            22    2       2.229520      5.590370      2.351750     0.982093    0.908183    0.450016
            23    2       0.071160      1.435470      5.818930    -0.529891    0.730590    1.518857
            24    2       2.792670      5.161760      5.908310     0.571637   -0.219350   -0.424284
 Energy
        -98.297097300000
 PlusStress:  xx          yy          zz          yz          xz          xy
         9.14451     4.71402     1.94466     1.18273     2.21043    -0.93450
 Feature   EFS_by	VASP
 Feature   mindist	1.973143
END_CFG

BEGIN_CFG
 Size
    24
 Supercell
         8.012684      0.000000      0.000000
         0.000000      8.012684      0.000000
         0.000000      0.000000      8.012684
 AtomData:  id type       cartes_x      cartes_y      cartes_z           fx          fy          fz
             1    0       5.193850      4.797970      6.400650     0.069553   -0.040395    0.379293
             2    0       3.665870      7.245650      1.341170     0.255603    0.104010   -0.393932
             3    0       0.828270      6.178300      4.869610    -0.146166   -1.429264   -0.009059
             4    0       3.393730      7.385780      4.997750    -0.098950   -0.015774   -0.469773
             5    0       0.137740      0.706470      0.235200    -0.172263   -0.554276    0.121418
             6    0       2.998500      2.941040      7.599550    -0.165867    0.127671    0.019164
             7    0       6.177030      7.522400      3.181740     0.103811    0.085025   -0.002928
             8    0       5.524430      2.660730      2.698290     0.136818    0.008622   -0.027051
             9    1       3.626830      4.277100      3.918040    -0.532067    0.621042   -0.288138
            10    1       5.103850      1.003080      7.574320     1.330439   -1.225713    0.253197
            11    1       0.282700      4.738630      1.266980     0.519917    0.061547    0.947341
            12    1       2.205850      2.202210      3.226630     0.791026   -0.669075    1.952621
            13    2       6.322290      5.428000      4.361830    -0.511870    1.348993    0.873124
            14    2       4.096420      0.794830      3.030470    -0.508550    0.251656   -0.066949
            15    2       3.106790      0.369570      7.013350    -0.433797    0.696039    0.841177
            16    2       0.922590      0.254110      4.428450     0.009311    1.483393   -0.190215
            17    2       7.464420      4.034580      3.489770     0.511537   -1.040813   -0.985524
            18    2       6.118440      1.181490      5.445600    -0.551086    0.036144   -0.007630
            19    2       1.117450      2.456910      1.353210    -0.329291    0.277536   -1.664408
            20    2       5.563180      3.023120      0.302920    -0.437700    0.436390   -0.026543
            21    2       6.173690      7.176190      0.773530    -0.083913    1.038681   -1.002565
            22    2       2.387290      5.774010      2.438840    -0.783480   -0.764566    0.169354
            23    2       0.073010      1.448230      5.969430     0.574898   -0.226865   -0.492057
            24    2       2.792670      5.161760      5.908310     0.472139   -0.634207    0.073394
 Energy
        -98.067457950000
 PlusStress:  xx          yy          zz          yz          xz          xy
         3.56114     3.83146     2.58058     4.93302    -0.09876     1.23201
 Feature   EFS_by	VASP
 Feature   mindist	2.001642
END_CFG

BEGIN_CFG
 Size
    24
 Supercell
         8.012684      0.000000      0.000000
         0.000000      8.012684      0.000000
         0.000000      0.000000      8.012684
 AtomData:  id type       cartes_x      cartes_y      cartes_z           fx          fy          fz
             1    0       5.275900      4.799870      6.860990     0.024450    0.102733   -0.268960
             2    0       3.684650      7.254010      1.042130    -0.199721   -0.295383    0.589648
             3    0       0.847530      5.232750      4.365870     0.002597    0.332615    0.631865
             4    0       3.324980      7.218320      4.754410    -0.140841    0.371439    0.097159
             5    0       0.403050      0.129620      0.141610     0.273253    0.198641   -0.107787
             6    0       2.779380      2.832400      7.731030     0.258040   -0.016222   -0.050650
             7    0       6.765010      7.839230      3.305160    -0.510020   -0.222743   -0.194369
             8    0       5.465840      2.759560      2.727520    -0.352337   -0.176790   -0.087595
             9    1       3.560700      4.394040      3.989990     0.932971   -0.684470   -0.648899
            10    1       5.247130      0.837510      7.629260    -0.772067    2.007297   -0.761866
            11    1       0.322210      4.720070      1.310680     0.094472   -0.320891   -0.195870
            12    1       2.344790      2.079340      3.446970    -0.521726    0.344775   -0.849763
            13    2       6.272150      5.725220      4.430240     0.601631   -0.755978   -0.410102
            14    2       4.150540      0.798320      2.974360    -0.250460   -0.459380   -0.026457
            15    2       3.124760      0.421510      7.035910    -0.043636   -0.007846    0.132597
            16    2       0.874300      0.389910      4.207920    -0.001616   -0.032961    1.477475
            17    2       7.239120      4.050000      3.312960    -0.530132    0.579575    0.856954
            18    2       6.079890      1.070310      5.516930     0.775004    0.601418   -0.097997
            19    2       0.922220      2.391140      1.202710     0.584797    0.336495    0.734502
            20    2       5.324790      2.958460      0.415970    -0.177588   -0.050443   -0.452282
            21    2       6.263030      7.245590      0.562480     0.486450   -1.257418    0.849377
            22    2       2.245180      5.702270      2.548630    -0.076700    0.334364   -0.845408
            23    2       0.118480      1.456150      6.054070    -0.247874   -0.739696   -1.378301
            24    2       2.792670      5.161760      5.908310    -0.199617   -0.173728    1.007313
 Energy
        -98.168889230000
 PlusStress:  xx          yy          zz          yz          xz          xy
         2.49376     2.70743     1.16004    -2.23029    -0.85373     1.47940
 Feature   EFS_by	VASP
 Feature   mindist	2.121684
END_CFG

BEGIN_CFG
 Size
    24
 Supercell
         8.012684      0.000000      0.000000
         0.000000      8.012684      0.000000
         0.000000      0.000000      8.012684
 AtomData:  id type       cartes_x      cartes_y      cartes_z           fx          fy          fz
             1    0       5.477770      5.184240      6.903180    -0.085089   -0.067964   -0.151220
             2    0       3.787120      6.862780      1.477370     0.112647   -0.024115   -0.601243
             3    0       0.729430      4.901540      4.911210    -0.310399    0.105364   -0.328468
             4    0       2.873080      7.548680      5.153760     0.763852   -0.690379   -0.268488
             5    0       1.187980      0.155560      0.125000    -0.849012    0.105797    0.395507
             6    0       2.736780      2.874630      7.564630     0.167739    0.103587    0.036175
             7    0       6.303280      7.643520      2.831380     0.051117    0.040658    0.409301
             8    0       5.110160      2.704590      2.564410     0.224754   -0.123060   -0.037009
             9    1       3.670250      4.421700      3.887630    -0.838437    0.482311    0.398427
            10    1       5.321630      0.896160      7.598620    -0.323477    0.466691    0.066774
            11    1       0.329000      4.598980      1.331980    -0.685359   -0.040444    0.133550
            12    1       2.323550      2.043030      3.451340    -0.149945    0.103872   -0.307033
            13    2       6.445130      5.870830      4.480540    -0.150908   -0.550771   -0.101180
            14    2       4.010020      0.616440      2.847480     0.083970    0.203531    0.585747
            15    2       3.137520      0.456410      7.178980     0.749322    0.030899   -0.013235
            16    2       0.916890      0.261360      4.369160     0.410810   -0.917887   -1.966490
            17    2       6.885680      4.104210      3.372840     0.876648    0.332267    0.117432
            18    2       6.135120      1.288400      5.441510     0.036106   -0.106157    0.209925
            19    2       1.121540      2.428020      1.461610    -0.076245   -0.606382   -0.399170
            20    2       5.043690      3.073360      0.309830     0.568718   -0.397615   -0.272479
            21    2       6.359390      7.057720      0.543190    -0.290104    0.712750   -0.566949
            22    2       2.056280      5.685650      2.420680     0.326168   -0.094562    0.551868
            23    2       0.190410      1.358470      5.798860    -1.058492    1.345303    2.056918
            24    2       2.792670      5.161760      5.908310     0.463633   -0.417251    0.047357
 Energy
        -98.111844150000
 PlusStress:  xx          yy          zz          yz          xz          xy
         3.42638     0.49458     3.86237     5.84348    -0.68040     0.10106
 Feature   EFS_by	VASP
 Feature   mindist	1.943056
END_CFG

BEGIN_CFG
 Size
    24
 Supercell
         8.012684      0.000000      0.000000
         0.000000      8.012684      0.000000
         0.000000      0.000000      8.012684
 AtomData:  id type       cartes_x      cartes_y      cartes_z           fx          fy          fz
             1    0       5.323270      5.421520      6.596220     0.059643   -0.302886    0.138906
             2    0       3.759740      6.704150      0.736370    -0.139027    0.016904    0.720345
             3    0       0.631910      4.994730      5.126290    -0.036965    0.107102   -0.279442
             4    0       3.586580      7.198860      4.877500    -0.532991    0.369599    0.527123
             5    0       0.289510      0.378060      0.453440     0.551539   -0.004716   -0.273402
             6    0       2.874170      3.147710      7.406320    -0.014681   -0.252177    0.180741
             7    0       6.039640      7.517820      3.090180     0.319235    0.348139   -0.438111
             8    0       5.244940      2.452840      2.418620    -0.050857    0.207956    0.264207
             9    1       3.589050      4.511280      3.843720    -0.110026   -0.792521   -0.362901
            10    1       5.290950      1.074520      7.528290     0.041831   -0.457051   -0.000850
            11    1       0.164970      4.438380      1.379590     0.483199    0.612670   -0.146595
            12    1       2.285890      1.997230      3.478780    -0.110879   -0.502873   -0.434111
            13    2       6.466580      5.805460      4.474760    -0.383073    0.790268    0.788215
            14    2       3.961010      0.433900      2.994110     0.270487    0.746604   -0.585441
            15    2       3.267980      0.355600      7.286880    -0.782625    0.137089   -0.899963
            16    2       0.988220      0.141560      4.304980    -0.354970    0.894057    0.775532
            17    2       7.002900      4.159000      3.459950     0.313876   -1.873207   -0.307492
            18    2       6.203350      1.478290      5.474010    -1.048702   -0.036877   -0.885855
            19    2       1.180130      2.310540      1.292530     0.106450    0.499786    0.523918
            20    2       5.206560      3.184530      0.171450     0.220703    0.392715    0.603405
            21    2       6.401610      7.246040      0.315160    -0.567465   -0.059101    0.334024
            22    2       2.088920      5.660320      2.495520    -0.250653   -0.043906   -0.563290
            23    2       0.125110      1.450200      5.885590     1.664371   -0.492631   -0.304846
            24    2       2.792670      5.161760      5.908310     0.329422   -0.252204    0.657642
 Energy
        -97.861928310000
 PlusStress:  xx          yy          zz          yz          xz          xy
         7.31987     2.30508     2.39996     0.05481     0.21450     0.23526
 Feature   EFS_by	VASP
 Feature   mindist	1.977944
END_CFG

BEGIN_CFG
 Size
    24
 Supercell
         8.012684      0.000000      0.000000
         0.000000      8.012684      0.000000
         0.000000      0.000000      8.012684
 AtomData:  id type       cartes_x      cartes_y      cartes_z           fx          fy          fz
             1    0       5.238070      4.955610      6.580130     0.032527    0.154889   -0.073259
             2    0       3.400320      6.938700      1.216090     0.486101    0.469669   -0.338793
             3    0       0.654650      5.395240      4.612830     0.574982    0.206507    0.209361
             4    0       3.313270      7.455560      5.136530     0.044171   -0.483098   -0.762357
             5    0       0.604620      0.411700      0.008360    -0.246126   -0.268898    0.238282
             6    0       2.931830      2.990140      7.558100    -0.058069    0.192291    0.016015
             7    0       6.551350      7.820080      2.922470    -0.128884   -0.241070    0.038703
             8    0       5.274230      2.737800      2.714930     0.005064   -0.060086   -0.245645
             9    1       3.444770      4.424880      3.760400    -0.020084   -0.037886    0.515089
            10    1       5.221940      1.185900      7.421500     0.139658    0.613629   -0.021356
            11    1       0.083820      4.440280      1.416260    -0.597008    0.211444   -0.057132
            12    1       2.325070      1.898340      3.478900    -0.348854    0.703594   -0.867253
            13    2       6.380110      5.688990      4.471170     0.114855   -0.894315   -0.559983
            14    2       4.054780      0.560120      2.929970     0.241173   -0.006714    0.091313
            15    2       3.105440      0.444660      7.051830     0.119538    0.894111    0.881937
            16    2       0.950020      0.209420      4.418420    -0.408038    0.206902    0.364204
            17    2       7.234210      3.815390      3.634190    -0.258066    1.178023   -0.251203
            18    2       6.186350      1.547670      5.277570     0.415944   -0.385756    1.037126
            19    2       1.144770      2.426300      1.117290     0.462088   -0.443254    0.919958
            20    2       5.521040      3.337440      0.334990    -0.725889   -1.181940   -0.388756
            21    2       6.206020      7.452790      0.269810     0.641545   -0.403526    0.616714
            22    2       1.956890      5.599870      2.354270     0.136790    0.239110    0.529254
            23    2       0.254390      1.495980      5.989570    -0.796995   -0.181356   -1.392761
            24    2       2.792670      5.161760      5.908310     0.147599   -0.490423   -0.480199
 Energy
        -98.378520740000
 PlusStress:  xx          yy          zz          yz          xz          xy
         1.54819    -1.04974    -2.71938    -0.89468    -0.47008     0.06612
 Feature   EFS_by	VASP
 Feature   mindist	2.146544
END_CFG

BEGIN_CFG
 Size
    24
 Supercell
         8.012684      0.000000      0.000000
         0.000000      8.012684      0.000000
         0.000000      0.000000      8.012684
 AtomData:  id type       cartes_x      cartes_y      cartes_z           fx          fy          fz
             1    0       5.220100      4.923610      6.374270    -0.087675   -0.130729    0.222921
             2    0       3.439780      7.192600      1.185110     0.842889    0.841333   -0.639170
             3    0       0.458840      5.569020      4.973160     0.535211    0.150783   -0.059523
             4    0       3.093990      7.656630      5.009110    -0.109082   -0.384274   -0.235471
             5    0       0.370640      0.557360      0.043740     0.038385   -0.727266   -0.403246
             6    0       2.993870      3.346000      7.732100    -0.387718   -0.149465   -0.127620
             7    0       6.340720      7.590070      3.232240     0.036986   -0.058546   -0.128290
             8    0       5.675230      2.609400      2.531550    -0.368902    0.032095   -0.127724
             9    1       3.265020      4.390880      3.828130     0.830494    0.856909   -0.536859
            10    1       5.288360      1.102880      7.518780    -1.330992    1.815760   -0.843790
            11    1       0.031200      4.534140      1.362680    -0.307915    0.482948    0.337303
            12    1       2.230220      2.102780      3.343800    -0.839923   -0.295692   -0.671380
            13    2       6.254480      5.317700      4.269440    -0.826376    1.243192    0.591668
            14    2       4.085150      0.874380      3.013710     0.075842   -0.196111   -0.511169
            15    2       3.090800      1.051030      6.842890     0.563248   -0.481474    0.879893
            16    2       0.826100      0.283200      4.042860    -0.426305   -0.347994    1.298888
            17    2       7.375220      3.778700      3.597910     0.872714   -0.212456   -0.905853
            18    2       6.082410      1.335690      5.295940    -1.146834    0.041300    0.579778
            19    2       0.794490      2.422720      1.037800     1.314903    0.606123    0.895946
            20    2       5.270390      3.477080      0.334240     0.560815   -1.254847   -0.251813
            21    2       6.282730      7.430840      0.446250    -0.029008   -0.351829    0.350375
            22    2       2.223350      6.082470      2.502430    -1.267504   -1.462307    0.541683
            23    2       8.001140      1.491160      5.807210     1.814636   -0.310275   -0.673018
            24    2       2.792670      5.161760      5.908310    -0.359185    0.307371    0.388854
 Energy
        -97.305933840000
 PlusStress:  xx          yy          zz          yz          xz          xy
         6.81089     3.41352    -0.72709     0.97542    -2.67284     0.92698
 Feature   EFS_by	VASP
 Feature   mindist	1.991756
END_CFG

BEGIN_CFG
 Size
    24
 Supercell
         8.012684      0.000000      0.000000
         0.000000      8.012684      0.000000
         0.000000      0.000000      8.012684
 AtomData:  id type       cartes_x      cartes_y      cartes_z           fx          fy          fz
             1    0       5.042770      4.783070      6.588310     0.193671    0.388354   -0.426096
             2    0       3.705470      7.520500      0.932840    -0.209918   -0.388623    0.308455
             3    0       0.683000      5.580820      4.748960    -0.078667   -0.054598   -0.083014
             4    0       2.918920      7.311400      4.967460     0.273961    0.606848   -0.022605
             5    0       0.447180      0.056820      7.712210    -0.090371    0.283257    0.232807